 Entering Gaussian System, Link 0=g16
 Input=co-full.inp
 Output=co-full.log
 Initial command:
 /opt/software/gaussian/g16.c01/l1.exe "/scratch/gameelka/Gau-14824.inp" -scrdir="/scratch/gameelka/"
 Entering Link 1 = /opt/software/gaussian/g16.c01/l1.exe PID=     14825.
  
 Copyright (c) 1988-2019, Gaussian, Inc.  All Rights Reserved.
  
 This is part of the Gaussian(R) 16 program.  It is based on
 the Gaussian(R) 09 system (copyright 2009, Gaussian, Inc.),
 the Gaussian(R) 03 system (copyright 2003, Gaussian, Inc.),
 the Gaussian(R) 98 system (copyright 1998, Gaussian, Inc.),
 the Gaussian(R) 94 system (copyright 1995, Gaussian, Inc.),
 the Gaussian 92(TM) system (copyright 1992, Gaussian, Inc.),
 the Gaussian 90(TM) system (copyright 1990, Gaussian, Inc.),
 the Gaussian 88(TM) system (copyright 1988, Gaussian, Inc.),
 the Gaussian 86(TM) system (copyright 1986, Carnegie Mellon
 University), and the Gaussian 82(TM) system (copyright 1983,
 Carnegie Mellon University). Gaussian is a federally registered
 trademark of Gaussian, Inc.
  
 This software contains proprietary and confidential information,
 including trade secrets, belonging to Gaussian, Inc.
  
 This software is provided under written license and may be
 used, copied, transmitted, or stored only in accord with that
 written license.
  
 The following legend is applicable only to US Government
 contracts under FAR:
  
                    RESTRICTED RIGHTS LEGEND
  
 Use, reproduction and disclosure by the US Government is
 subject to restrictions as set forth in subparagraphs (a)
 and (c) of the Commercial Computer Software - Restricted
 Rights clause in FAR 52.227-19.
  
 Gaussian, Inc.
 340 Quinnipiac St., Bldg. 40, Wallingford CT 06492
  
  
 ---------------------------------------------------------------
 Warning -- This program may not be used in any manner that
 competes with the business of Gaussian, Inc. or will provide
 assistance to any competitor of Gaussian, Inc.  The licensee
 of this program is prohibited from giving any competitor of
 Gaussian, Inc. access to this program.  By using this program,
 the user acknowledges that Gaussian, Inc. is engaged in the
 business of creating and licensing software in the field of
 computational chemistry and represents and warrants to the
 licensee that it is not a competitor of Gaussian, Inc. and that
 it will not use this program in any manner prohibited above.
 ---------------------------------------------------------------
  

 Cite this work as:
 Gaussian 16, Revision C.01,
 M. J. Frisch, G. W. Trucks, H. B. Schlegel, G. E. Scuseria, 
 M. A. Robb, J. R. Cheeseman, G. Scalmani, V. Barone, 
 G. A. Petersson, H. Nakatsuji, X. Li, M. Caricato, A. V. Marenich, 
 J. Bloino, B. G. Janesko, R. Gomperts, B. Mennucci, H. P. Hratchian, 
 J. V. Ortiz, A. F. Izmaylov, J. L. Sonnenberg, D. Williams-Young, 
 F. Ding, F. Lipparini, F. Egidi, J. Goings, B. Peng, A. Petrone, 
 T. Henderson, D. Ranasinghe, V. G. Zakrzewski, J. Gao, N. Rega, 
 G. Zheng, W. Liang, M. Hada, M. Ehara, K. Toyota, R. Fukuda, 
 J. Hasegawa, M. Ishida, T. Nakajima, Y. Honda, O. Kitao, H. Nakai, 
 T. Vreven, K. Throssell, J. A. Montgomery, Jr., J. E. Peralta, 
 F. Ogliaro, M. J. Bearpark, J. J. Heyd, E. N. Brothers, K. N. Kudin, 
 V. N. Staroverov, T. A. Keith, R. Kobayashi, J. Normand, 
 K. Raghavachari, A. P. Rendell, J. C. Burant, S. S. Iyengar, 
 J. Tomasi, M. Cossi, J. M. Millam, M. Klene, C. Adamo, R. Cammi, 
 J. W. Ochterski, R. L. Martin, K. Morokuma, O. Farkas, 
 J. B. Foresman, and D. J. Fox, Gaussian, Inc., Wallingford CT, 2019.
 
 ******************************************
 Gaussian 16:  ES64L-G16RevC.01  3-Jul-2019
                24-Mar-2024 
 ******************************************
 -------------------------------------------------------
 #n TPSSTPSS/Gen Pseudo=Read EmpiricalDispersion=GD3 opt
 -------------------------------------------------------
 1/18=20,19=15,26=3,38=1/1,3;
 2/9=110,12=2,17=6,18=5,40=1/2;
 3/5=7,11=2,16=1,17=8,25=1,30=1,71=1,74=2523,124=31/1,2,3;
 4//1;
 5/5=2,38=5/2;
 6/7=2,8=2,9=2,10=2,28=1/1;
 7//1,2,3,16;
 1/18=20,19=15,26=3/3(2);
 2/9=110/2;
 99//99;
 2/9=110/2;
 3/5=7,6=1,11=2,16=1,17=8,25=1,30=1,71=1,74=2523,82=7,124=31/1,2,3;
 4/5=5,16=3,69=1/1;
 5/5=2,38=5/2;
 7//1,2,3,16;
 1/18=20,19=15,26=3/3(-5);
 2/9=110/2;
 6/7=2,8=2,9=2,10=2,19=2,28=1/1;
 99/9=1/99;
 -----
 Title
 -----
 Symbolic Z-matrix:
 Charge =  0 Multiplicity = 1
 Co                    0.9694    3.4698    6.5482 
 S                     4.0335    2.6415    5.4091 
 C                     2.4044    2.1328    6.0331 
 C                     1.0011    4.0972    4.8471 
 O                     0.9982    4.4773    3.7919 
 C                    -0.3534    4.6195    6.9908 
 O                    -1.1735    5.3388    7.2524 
 C                    -0.0624    2.0008    6.8899 
 O                    -0.6837    1.0903    7.1005 
 C                     2.0487    4.071     7.8831 
 O                     2.6948    4.4215    8.7299 
 F                     3.7749    4.1962    5.4357 
 F                     5.4911    2.9955    4.856 
 F                     4.6496    2.7417    6.8511 
 F                     3.5523    2.6267    3.895 
 F                     4.483     1.1313    5.2927 
 H                     2.6285    1.5933    6.8611 
 H                     2.1423    1.6047    5.3315 
 

 GradGradGradGradGradGradGradGradGradGradGradGradGradGradGradGradGradGrad
 Berny optimization.
 Initialization pass.
                           ----------------------------
                           !    Initial Parameters    !
                           ! (Angstroms and Degrees)  !
 --------------------------                            --------------------------
 ! Name  Definition              Value          Derivative Info.                !
 --------------------------------------------------------------------------------
 ! R1    R(1,3)                  2.0278         estimate D2E/DX2                !
 ! R2    R(1,4)                  1.8134         estimate D2E/DX2                !
 ! R3    R(1,6)                  1.8076         estimate D2E/DX2                !
 ! R4    R(1,8)                  1.8274         estimate D2E/DX2                !
 ! R5    R(1,10)                 1.8189         estimate D2E/DX2                !
 ! R6    R(2,3)                  1.8172         estimate D2E/DX2                !
 ! R7    R(2,12)                 1.5763         estimate D2E/DX2                !
 ! R8    R(2,13)                 1.5987         estimate D2E/DX2                !
 ! R9    R(2,14)                 1.5713         estimate D2E/DX2                !
 ! R10   R(2,15)                 1.5888         estimate D2E/DX2                !
 ! R11   R(2,16)                 1.58           estimate D2E/DX2                !
 ! R12   R(3,17)                 1.0133         estimate D2E/DX2                !
 ! R13   R(3,18)                 0.9164         estimate D2E/DX2                !
 ! R14   R(4,5)                  1.1216         estimate D2E/DX2                !
 ! R15   R(6,7)                  1.1218         estimate D2E/DX2                !
 ! R16   R(8,9)                  1.1222         estimate D2E/DX2                !
 ! R17   R(10,11)                1.1213         estimate D2E/DX2                !
 ! A1    A(3,1,4)               88.7083         estimate D2E/DX2                !
 ! A2    A(3,1,8)               85.2414         estimate D2E/DX2                !
 ! A3    A(3,1,10)              89.1085         estimate D2E/DX2                !
 ! A4    A(4,1,6)               91.2851         estimate D2E/DX2                !
 ! A5    A(4,1,8)              117.6073         estimate D2E/DX2                !
 ! A6    A(4,1,10)             124.3148         estimate D2E/DX2                !
 ! A7    A(6,1,8)               92.9988         estimate D2E/DX2                !
 ! A8    A(6,1,10)              92.5394         estimate D2E/DX2                !
 ! A9    A(8,1,10)             117.6147         estimate D2E/DX2                !
 ! A10   A(3,2,12)              97.0788         estimate D2E/DX2                !
 ! A11   A(3,2,14)              93.1088         estimate D2E/DX2                !
 ! A12   A(3,2,15)              93.0446         estimate D2E/DX2                !
 ! A13   A(3,2,16)              90.7319         estimate D2E/DX2                !
 ! A14   A(12,2,13)             86.389          estimate D2E/DX2                !
 ! A15   A(12,2,14)             89.1946         estimate D2E/DX2                !
 ! A16   A(12,2,15)             88.6008         estimate D2E/DX2                !
 ! A17   A(13,2,14)             86.8982         estimate D2E/DX2                !
 ! A18   A(13,2,15)             87.0479         estimate D2E/DX2                !
 ! A19   A(13,2,16)             85.8007         estimate D2E/DX2                !
 ! A20   A(14,2,16)             90.9748         estimate D2E/DX2                !
 ! A21   A(15,2,16)             90.4042         estimate D2E/DX2                !
 ! A22   A(1,3,2)              122.4841         estimate D2E/DX2                !
 ! A23   A(1,3,17)             107.4554         estimate D2E/DX2                !
 ! A24   A(1,3,18)             111.8404         estimate D2E/DX2                !
 ! A25   A(2,3,17)             103.3773         estimate D2E/DX2                !
 ! A26   A(2,3,18)              98.9068         estimate D2E/DX2                !
 ! A27   A(17,3,18)            112.4581         estimate D2E/DX2                !
 ! A28   L(3,1,6,4,-1)         179.9935         estimate D2E/DX2                !
 ! A29   L(3,2,13,12,-1)       183.4678         estimate D2E/DX2                !
 ! A30   L(12,2,16,3,-1)       187.8108         estimate D2E/DX2                !
 ! A31   L(14,2,15,3,-1)       186.1535         estimate D2E/DX2                !
 ! A32   L(1,4,5,2,-1)         180.9155         estimate D2E/DX2                !
 ! A33   L(1,6,7,5,-1)         179.2706         estimate D2E/DX2                !
 ! A34   L(1,8,9,17,-1)        179.238          estimate D2E/DX2                !
 ! A35   L(1,10,11,2,-1)       181.0645         estimate D2E/DX2                !
 ! A36   L(3,1,6,4,-2)         178.007          estimate D2E/DX2                !
 ! A37   L(3,2,13,12,-2)       179.9755         estimate D2E/DX2                !
 ! A38   L(12,2,16,3,-2)       179.4103         estimate D2E/DX2                !
 ! A39   L(14,2,15,3,-2)       178.5403         estimate D2E/DX2                !
 ! A40   L(1,4,5,2,-2)         179.1415         estimate D2E/DX2                !
 ! A41   L(1,6,7,5,-2)         180.0701         estimate D2E/DX2                !
 ! A42   L(1,8,9,17,-2)        180.0239         estimate D2E/DX2                !
 ! A43   L(1,10,11,2,-2)       181.6333         estimate D2E/DX2                !
 ! D1    D(4,1,3,2)             59.9306         estimate D2E/DX2                !
 ! D2    D(4,1,3,17)           179.1211         estimate D2E/DX2                !
 ! D3    D(4,1,3,18)           -57.0001         estimate D2E/DX2                !
 ! D4    D(8,1,3,2)            177.7708         estimate D2E/DX2                !
 ! D5    D(8,1,3,17)           -63.0387         estimate D2E/DX2                !
 ! D6    D(8,1,3,18)            60.8401         estimate D2E/DX2                !
 ! D7    D(10,1,3,2)           -64.4232         estimate D2E/DX2                !
 ! D8    D(10,1,3,17)           54.7672         estimate D2E/DX2                !
 ! D9    D(10,1,3,18)          178.6461         estimate D2E/DX2                !
 ! D10   D(12,2,3,1)            -1.3981         estimate D2E/DX2                !
 ! D11   D(12,2,3,17)         -122.5246         estimate D2E/DX2                !
 ! D12   D(12,2,3,18)          121.7077         estimate D2E/DX2                !
 ! D13   D(14,2,3,1)            88.1756         estimate D2E/DX2                !
 ! D14   D(14,2,3,17)          -32.9509         estimate D2E/DX2                !
 ! D15   D(14,2,3,18)         -148.7186         estimate D2E/DX2                !
 ! D16   D(15,2,3,1)           -90.3647         estimate D2E/DX2                !
 ! D17   D(15,2,3,17)          148.5089         estimate D2E/DX2                !
 ! D18   D(15,2,3,18)           32.7411         estimate D2E/DX2                !
 ! D19   D(16,2,3,1)           179.1916         estimate D2E/DX2                !
 ! D20   D(16,2,3,17)           58.0652         estimate D2E/DX2                !
 ! D21   D(16,2,3,18)          -57.7026         estimate D2E/DX2                !
 --------------------------------------------------------------------------------
 Trust Radius=3.00D-01 FncErr=1.00D-07 GrdErr=1.00D-06 EigMax=2.50D+02 EigMin=1.00D-04
 Number of steps in this run=     91 maximum allowed number of steps=    108.
 GradGradGradGradGradGradGradGradGradGradGradGradGradGradGradGradGradGrad

                          Input orientation:                          
 ---------------------------------------------------------------------
 Center     Atomic      Atomic             Coordinates (Angstroms)
 Number     Number       Type             X           Y           Z
 ---------------------------------------------------------------------
      1         27           0        0.969400    3.469800    6.548200
      2         16           0        4.033500    2.641500    5.409100
      3          6           0        2.404400    2.132800    6.033100
      4          6           0        1.001100    4.097200    4.847100
      5          8           0        0.998200    4.477300    3.791900
      6          6           0       -0.353400    4.619500    6.990800
      7          8           0       -1.173500    5.338800    7.252400
      8          6           0       -0.062400    2.000800    6.889900
      9          8           0       -0.683700    1.090300    7.100500
     10          6           0        2.048700    4.071000    7.883100
     11          8           0        2.694800    4.421500    8.729900
     12          9           0        3.774900    4.196200    5.435700
     13          9           0        5.491100    2.995500    4.856000
     14          9           0        4.649600    2.741700    6.851100
     15          9           0        3.552300    2.626700    3.895000
     16          9           0        4.483000    1.131300    5.292700
     17          1           0        2.628500    1.593300    6.861100
     18          1           0        2.142300    1.604700    5.331500
 ---------------------------------------------------------------------
                    Distance matrix (angstroms):
                    1          2          3          4          5
     1  Co   0.000000
     2  S    3.372290   0.000000
     3  C    2.027837   1.817173   0.000000
     4  C    1.813388   3.410331   2.689742   0.000000
     5  O    2.934804   3.898531   3.535118   1.121575   0.000000
     6  C    1.807624   5.065486   3.834883   2.588999   3.475630
     7  O    2.929348   6.147034   4.956460   3.472164   4.175347
     8  C    1.827384   4.402234   2.614695   3.114315   4.105549
     9  O    2.949542   5.245858   3.429652   4.117986   5.024678
    10  C    1.818870   3.479020   2.702895   3.211767   4.243412
    11  O    2.939822   3.998529   3.548973   4.248520   5.221629
    12  F    3.104214   1.576285   2.548093   2.837291   3.239006
    13  F    4.851213   1.598697   3.414313   4.623194   4.849143
    14  F    3.763741   1.571300   2.465929   4.377779   5.069885
    15  F    3.797586   1.588796   2.476506   3.094751   3.155753
    16  F    4.403436   1.579969   2.423174   4.595514   5.058848
    17  H    2.524237   2.276192   1.013344   3.601964   4.516118
    18  H    2.516873   2.158150   0.916422   2.783799   3.454152
                    6          7          8          9         10
     6  C    0.000000
     7  O    1.121780   0.000000
     8  C    2.636750   3.536692   0.000000
     9  O    3.546320   4.279338   1.122219   0.000000
    10  C    2.620522   3.519613   3.119121   4.118622   0.000000
    11  O    3.514996   4.241249   4.104576   5.016583   1.121323
    12  F    4.431747   5.393755   4.653961   5.683070   2.997534
    13  F    6.430624   7.459938   5.997294   6.840740   4.708519
    14  F    5.345620   6.388620   4.770051   5.588686   3.097861
    15  F    5.367469   6.400063   4.735740   5.529869   4.500195
    16  F    6.200149   7.317067   4.895686   5.473994   4.612789
    17  H    4.250463   5.351363   2.721733   3.358719   2.742198
    18  H    4.250978   5.350504   2.728774   3.373462   3.549938
                   11         12         13         14         15
    11  O    0.000000
    12  F    3.474065   0.000000
    13  F    4.985967   2.173264   0.000000
    14  F    3.189492   2.209984   2.180129   0.000000
    15  F    5.228085   2.210574   2.195104   3.155284   0.000000
    16  F    5.083052   3.148883   2.163842   2.247166   2.248553
    17  H    3.390505   3.181366   3.765776   2.324601   3.273999
    18  H    4.448454   3.064655   3.657169   3.144600   2.257458
                   16         17         18
    16  F    0.000000
    17  H    2.472346   0.000000
    18  H    2.388407   1.605053   0.000000
 Stoichiometry    C5H2CoF5O4S
 Framework group  C1[X(C5H2CoF5O4S)]
 Deg. of freedom    48
 Full point group                 C1      NOp   1
 Largest Abelian subgroup         C1      NOp   1
 Largest concise Abelian subgroup C1      NOp   1
                         Standard orientation:                         
 ---------------------------------------------------------------------
 Center     Atomic      Atomic             Coordinates (Angstroms)
 Number     Number       Type             X           Y           Z
 ---------------------------------------------------------------------
      1         27           0        1.365751   -0.012891    0.059054
      2         16           0       -2.006464   -0.007816    0.080941
      3          6           0       -0.434596   -0.082812    0.989636
      4          6           0        0.914594    1.614145   -0.602451
      5          8           0        0.653114    2.630381   -0.998461
      6          6           0        2.994672    0.077099   -0.719420
      7          8           0        4.001812    0.145317   -1.208713
      8          6           0        2.068721   -0.076483    1.744617
      9          8           0        2.487435   -0.120839    2.784851
     10          6           0        0.976008   -1.593548   -0.752063
     11          8           0        0.756496   -2.585210   -1.227234
     12          9           0       -1.389770    0.143262   -1.361813
     13          9           0       -3.435320    0.048519   -0.633923
     14          9           0       -2.058268   -1.564257   -0.128316
     15          9           0       -2.081335    1.576574    0.172460
     16          9           0       -2.816582   -0.135282    1.431409
     17          1           0       -0.489196   -0.967999    1.479868
     18          1           0       -0.558457    0.634162    1.546803
 ---------------------------------------------------------------------
 Rotational constants (GHZ):           0.7051451           0.2958720           0.2898950
 General basis read from cards:  (5D, 7F)
 ======================================================================================================
                                       Pseudopotential Parameters
 ======================================================================================================
  Center     Atomic      Valence      Angular      Power
  Number     Number     Electrons     Momentum     of R      Exponent        Coefficient   SO-Coeffient
 ======================================================================================================
    1         27           17
                                      D and up 
                                                     1      434.1076104      -10.00000000    0.00000000
                                                     2       78.8402758      -66.72402760    0.00000000
                                                     2       19.6037749      -11.71922430    0.00000000
                                      S - D
                                                     0      151.2307582        3.00000000    0.00000000
                                                     1      169.6790026       20.15531100    0.00000000
                                                     2       64.9909423      413.37622440    0.00000000
                                                     2       12.5076287      133.87277050    0.00000000
                                      P - D
                                                     0       92.7319924        5.00000000    0.00000000
                                                     1      121.1910183        6.18923530    0.00000000
                                                     2       48.6265909      326.32159190    0.00000000
                                                     2       11.9966971       73.87889700    0.00000000
    2         16
                                   No pseudopotential on this center.
    3          6
                                   No pseudopotential on this center.
    4          6
                                   No pseudopotential on this center.
    5          8
                                   No pseudopotential on this center.
    6          6
                                   No pseudopotential on this center.
    7          8
                                   No pseudopotential on this center.
    8          6
                                   No pseudopotential on this center.
    9          8
                                   No pseudopotential on this center.
   10          6
                                   No pseudopotential on this center.
   11          8
                                   No pseudopotential on this center.
   12          9
                                   No pseudopotential on this center.
   13          9
                                   No pseudopotential on this center.
   14          9
                                   No pseudopotential on this center.
   15          9
                                   No pseudopotential on this center.
   16          9
                                   No pseudopotential on this center.
   17          1
                                   No pseudopotential on this center.
   18          1
                                   No pseudopotential on this center.
 ======================================================================================================
 There are   263 symmetry adapted cartesian basis functions of A   symmetry.
 There are   246 symmetry adapted basis functions of A   symmetry.
   246 basis functions,   510 primitive gaussians,   263 cartesian basis functions
    71 alpha electrons       71 beta electrons
       nuclear repulsion energy      1652.9089288081 Hartrees.
 NAtoms=   18 NActive=   18 NUniq=   18 SFac= 1.00D+00 NAtFMM=   60 NAOKFM=F Big=F
 Integral buffers will be    131072 words long.
 Raffenetti 2 integral format.
 Two-electron integral symmetry is turned on.
 Nuclear repulsion after empirical dispersion term =     1652.8892186430 Hartrees.
 One-electron integrals computed using PRISM.
   1 Symmetry operations used in ECPInt.
 ECPInt:  NShTT=    2850 NPrTT=   20007 LenC2=    2608 LenP2D=   10893.
 LDataN:  DoStor=T MaxTD1= 4 Len=   56
 NBasis=   246 RedAO= T EigKep=  3.20D-03  NBF=   246
 NBsUse=   246 1.00D-06 EigRej= -1.00D+00 NBFU=   246
 ExpMin= 2.30D-02 ExpMax= 2.19D+04 ExpMxC= 3.30D+03 IAcc=3 IRadAn=         5 AccDes= 0.00D+00
 Harris functional with IExCor= 1009 and IRadAn=       5 diagonalized for initial guess.
 HarFok:  IExCor= 1009 AccDes= 0.00D+00 IRadAn=         5 IDoV= 1 UseB2=F ITyADJ=14
 ICtDFT=  3500011 ScaDFX=  1.000000  1.000000  1.000000  1.000000
 FoFCou: FMM=F IPFlag=           0 FMFlag=      100000 FMFlg1=           0
         NFxFlg=           0 DoJE=T BraDBF=F KetDBF=T FulRan=T
         wScrn=  0.000000 ICntrl=       500 IOpCl=  0 I1Cent=   200000004 NGrid=           0
         NMat0=    1 NMatS0=      1 NMatT0=    0 NMatD0=    1 NMtDS0=    0 NMtDT0=    0
 Petite list used in FoFCou.
 Requested convergence on RMS density matrix=1.00D-08 within 128 cycles.
 Requested convergence on MAX density matrix=1.00D-06.
 Requested convergence on             energy=1.00D-06.
 No special actions if energy rises.
 EnCoef did     9 forward-backward iterations
 EnCoef did   100 forward-backward iterations
 EnCoef did     7 forward-backward iterations
 EnCoef did    14 forward-backward iterations
 SCF Done:  E(RTPSS-TPSS) =  -1535.09345286     A.U. after   18 cycles
            NFock= 18  Conv=0.38D-08     -V/T= 2.0439

 **********************************************************************

            Population analysis using the SCF Density.

 **********************************************************************

 Orbital symmetries:
       Occupied  (A) (A) (A) (A) (A) (A) (A) (A) (A) (A) (A) (A)
                 (A) (A) (A) (A) (A) (A) (A) (A) (A) (A) (A) (A)
                 (A) (A) (A) (A) (A) (A) (A) (A) (A) (A) (A) (A)
                 (A) (A) (A) (A) (A) (A) (A) (A) (A) (A) (A) (A)
                 (A) (A) (A) (A) (A) (A) (A) (A) (A) (A) (A) (A)
                 (A) (A) (A) (A) (A) (A) (A) (A) (A) (A) (A)
       Virtual   (A) (A) (A) (A) (A) (A) (A) (A) (A) (A) (A) (A)
                 (A) (A) (A) (A) (A) (A) (A) (A) (A) (A) (A) (A)
                 (A) (A) (A) (A) (A) (A) (A) (A) (A) (A) (A) (A)
                 (A) (A) (A) (A) (A) (A) (A) (A) (A) (A) (A) (A)
                 (A) (A) (A) (A) (A) (A) (A) (A) (A) (A) (A) (A)
                 (A) (A) (A) (A) (A) (A) (A) (A) (A) (A) (A) (A)
                 (A) (A) (A) (A) (A) (A) (A) (A) (A) (A) (A) (A)
                 (A) (A) (A) (A) (A) (A) (A) (A) (A) (A) (A) (A)
                 (A) (A) (A) (A) (A) (A) (A) (A) (A) (A) (A) (A)
                 (A) (A) (A) (A) (A) (A) (A) (A) (A) (A) (A) (A)
                 (A) (A) (A) (A) (A) (A) (A) (A) (A) (A) (A) (A)
                 (A) (A) (A) (A) (A) (A) (A) (A) (A) (A) (A) (A)
                 (A) (A) (A) (A) (A) (A) (A) (A) (A) (A) (A) (A)
                 (A) (A) (A) (A) (A) (A) (A) (A) (A) (A) (A) (A)
                 (A) (A) (A) (A) (A) (A) (A)
 The electronic state is 1-A.
 Alpha  occ. eigenvalues --  -88.71446 -24.44533 -24.44491 -24.44160 -24.44149
 Alpha  occ. eigenvalues --  -24.42417 -19.02571 -19.01484 -19.00853 -19.00768
 Alpha  occ. eigenvalues --  -10.14953 -10.13397 -10.12850 -10.12824 -10.02430
 Alpha  occ. eigenvalues --   -8.03564  -6.01981  -6.01978  -6.01301  -3.64839
 Alpha  occ. eigenvalues --   -2.38932  -2.36628  -2.36268  -1.25794  -1.16100
 Alpha  occ. eigenvalues --   -1.16022  -1.11710  -1.11321  -1.11153  -1.10568
 Alpha  occ. eigenvalues --   -1.09958  -1.09875  -0.76301  -0.66916  -0.57202
 Alpha  occ. eigenvalues --   -0.56177  -0.56040  -0.53948  -0.53305  -0.53106
 Alpha  occ. eigenvalues --   -0.52402  -0.47233  -0.46979  -0.46259  -0.46200
 Alpha  occ. eigenvalues --   -0.45736  -0.45036  -0.44467  -0.44353  -0.43994
 Alpha  occ. eigenvalues --   -0.43470  -0.43293  -0.43114  -0.42879  -0.42454
 Alpha  occ. eigenvalues --   -0.42080  -0.41656  -0.39534  -0.38563  -0.37023
 Alpha  occ. eigenvalues --   -0.36950  -0.36766  -0.33423  -0.32763  -0.32369
 Alpha  occ. eigenvalues --   -0.32291  -0.29291  -0.28405  -0.28175  -0.24023
 Alpha  occ. eigenvalues --   -0.23228
 Alpha virt. eigenvalues --   -0.10502  -0.08381  -0.08295  -0.06266  -0.06178
 Alpha virt. eigenvalues --   -0.05385  -0.05311  -0.04358  -0.03352  -0.01759
 Alpha virt. eigenvalues --    0.00876   0.01380   0.01518   0.04419   0.10556
 Alpha virt. eigenvalues --    0.12024   0.14500   0.18083   0.21126   0.22817
 Alpha virt. eigenvalues --    0.23485   0.24707   0.27027   0.28711   0.28954
 Alpha virt. eigenvalues --    0.34005   0.36522   0.37680   0.38519   0.44493
 Alpha virt. eigenvalues --    0.45975   0.47527   0.48382   0.50345   0.53120
 Alpha virt. eigenvalues --    0.55757   0.57560   0.58264   0.60023   0.62075
 Alpha virt. eigenvalues --    0.63347   0.65002   0.66040   0.66428   0.66593
 Alpha virt. eigenvalues --    0.67114   0.69647   0.74087   0.75158   0.78984
 Alpha virt. eigenvalues --    0.79541   0.81007   0.81767   0.82527   0.85860
 Alpha virt. eigenvalues --    0.86446   0.88009   0.89557   0.91530   0.93211
 Alpha virt. eigenvalues --    0.94091   0.94401   0.94684   0.97231   0.99009
 Alpha virt. eigenvalues --    1.00175   1.02387   1.03634   1.04692   1.05606
 Alpha virt. eigenvalues --    1.10271   1.10742   1.13295   1.13914   1.15737
 Alpha virt. eigenvalues --    1.16052   1.17031   1.17389   1.19312   1.21906
 Alpha virt. eigenvalues --    1.22003   1.24976   1.32355   1.33863   1.35208
 Alpha virt. eigenvalues --    1.37390   1.41157   1.41328   1.41815   1.42412
 Alpha virt. eigenvalues --    1.42786   1.43591   1.44100   1.44965   1.45762
 Alpha virt. eigenvalues --    1.46590   1.48732   1.49713   1.50214   1.50582
 Alpha virt. eigenvalues --    1.52241   1.53500   1.56893   1.58867   1.60794
 Alpha virt. eigenvalues --    1.66537   1.66979   1.67733   1.69456   1.69802
 Alpha virt. eigenvalues --    1.70710   1.72330   1.72606   1.73219   1.75085
 Alpha virt. eigenvalues --    1.75766   1.79132   1.81245   1.81494   1.85085
 Alpha virt. eigenvalues --    1.89173   1.89997   1.90527   1.90775   1.91697
 Alpha virt. eigenvalues --    1.91817   1.91913   1.92609   1.94170   1.94888
 Alpha virt. eigenvalues --    1.97020   1.97289   1.99165   1.99482   2.01091
 Alpha virt. eigenvalues --    2.03619   2.04287   2.05033   2.06478   2.08254
 Alpha virt. eigenvalues --    2.10923   2.11202   2.19975   2.22521   2.27599
 Alpha virt. eigenvalues --    2.31605   2.39190   2.39901   2.40324   2.41653
 Alpha virt. eigenvalues --    2.47284   2.53363   2.55529   2.55667   2.56120
 Alpha virt. eigenvalues --    2.56371   2.56994   2.61426   2.64253   2.65683
 Alpha virt. eigenvalues --    2.66755   2.67021   2.72686   2.75749   2.80878
 Alpha virt. eigenvalues --    2.98770   2.99384   3.02975   3.03607   3.04611
 Alpha virt. eigenvalues --    3.07285   3.07858   3.57573   3.96568  40.28159
          Condensed to atoms (all electrons):
               1          2          3          4          5          6
     1  Co  16.022467  -0.021324   0.192856   0.256370   0.000435   0.255099
     2  S   -0.021324  13.041183   0.292794  -0.002927   0.001037   0.000176
     3  C    0.192856   0.292794   5.441520   0.009326  -0.001302  -0.018327
     4  C    0.256370  -0.002927   0.009326   4.900473   0.630054  -0.018433
     5  O    0.000435   0.001037  -0.001302   0.630054   7.586727  -0.002686
     6  C    0.255099   0.000176  -0.018327  -0.018433  -0.002686   4.891188
     7  O    0.001498  -0.000001   0.000007  -0.002168   0.000018   0.638057
     8  C    0.268788   0.001548   0.008846  -0.030675  -0.000300  -0.019582
     9  O    0.001139   0.000004  -0.000847  -0.000250   0.000001  -0.002193
    10  C    0.258022  -0.003409   0.005866  -0.026994  -0.000155  -0.016789
    11  O    0.000621   0.000722  -0.001220  -0.000147   0.000000  -0.002490
    12  F    0.019158   0.201220  -0.041693   0.001435  -0.000836   0.000059
    13  F    0.003322   0.253678  -0.002462  -0.000018  -0.000000  -0.000000
    14  F    0.003126   0.203314  -0.037316   0.000009  -0.000000   0.000002
    15  F    0.002433   0.198089  -0.036014   0.005634  -0.000909   0.000001
    16  F    0.003518   0.207698  -0.032244   0.000040  -0.000000  -0.000000
    17  H   -0.033040  -0.013848   0.358639   0.001459  -0.000014   0.000552
    18  H   -0.029676  -0.017558   0.357995  -0.005222   0.000250   0.000454
               7          8          9         10         11         12
     1  Co   0.001498   0.268788   0.001139   0.258022   0.000621   0.019158
     2  S   -0.000001   0.001548   0.000004  -0.003409   0.000722   0.201220
     3  C    0.000007   0.008846  -0.000847   0.005866  -0.001220  -0.041693
     4  C   -0.002168  -0.030675  -0.000250  -0.026994  -0.000147   0.001435
     5  O    0.000018  -0.000300   0.000001  -0.000155   0.000000  -0.000836
     6  C    0.638057  -0.019582  -0.002193  -0.016789  -0.002490   0.000059
     7  O    7.580012  -0.001688   0.000017  -0.001874   0.000017   0.000000
     8  C   -0.001688   4.895367   0.636890  -0.029834  -0.000310  -0.000008
     9  O    0.000017   0.636890   7.584207  -0.000254   0.000001  -0.000000
    10  C   -0.001874  -0.029834  -0.000254   4.900641   0.631354  -0.000305
    11  O    0.000017  -0.000310   0.000001   0.631354   7.585229  -0.000308
    12  F    0.000000  -0.000008  -0.000000  -0.000305  -0.000308   9.238750
    13  F    0.000000  -0.000000   0.000000  -0.000011   0.000000  -0.040943
    14  F    0.000000  -0.000000  -0.000000   0.005551  -0.000870  -0.028680
    15  F    0.000000  -0.000001  -0.000000   0.000018  -0.000000  -0.028688
    16  F    0.000000   0.000012  -0.000000   0.000040  -0.000000   0.000489
    17  H   -0.000001  -0.007367   0.000162  -0.006579   0.000380   0.001140
    18  H   -0.000001  -0.006901   0.000135   0.001782  -0.000020   0.001394
              13         14         15         16         17         18
     1  Co   0.003322   0.003126   0.002433   0.003518  -0.033040  -0.029676
     2  S    0.253678   0.203314   0.198089   0.207698  -0.013848  -0.017558
     3  C   -0.002462  -0.037316  -0.036014  -0.032244   0.358639   0.357995
     4  C   -0.000018   0.000009   0.005634   0.000040   0.001459  -0.005222
     5  O   -0.000000  -0.000000  -0.000909  -0.000000  -0.000014   0.000250
     6  C   -0.000000   0.000002   0.000001  -0.000000   0.000552   0.000454
     7  O    0.000000   0.000000   0.000000   0.000000  -0.000001  -0.000001
     8  C   -0.000000  -0.000000  -0.000001   0.000012  -0.007367  -0.006901
     9  O    0.000000  -0.000000  -0.000000  -0.000000   0.000162   0.000135
    10  C   -0.000011   0.005551   0.000018   0.000040  -0.006579   0.001782
    11  O    0.000000  -0.000870  -0.000000  -0.000000   0.000380  -0.000020
    12  F   -0.040943  -0.028680  -0.028688   0.000489   0.001140   0.001394
    13  F    9.229428  -0.040173  -0.037987  -0.043907  -0.000067  -0.000098
    14  F   -0.040173   9.242873   0.000525  -0.025425   0.002684   0.003142
    15  F   -0.037987   0.000525   9.251630  -0.025569   0.002319   0.007342
    16  F   -0.043907  -0.025425  -0.025569   9.233177   0.000314   0.002440
    17  H   -0.000067   0.002684   0.002319   0.000314   0.519189  -0.022711
    18  H   -0.000098   0.003142   0.007342   0.002440  -0.022711   0.516198
 Mulliken charges:
               1
     1  Co  -0.204812
     2  S    1.657603
     3  C   -0.496424
     4  C    0.282034
     5  O   -0.212318
     6  C    0.294910
     7  O   -0.213893
     8  C    0.285216
     9  O   -0.219012
    10  C    0.282928
    11  O   -0.212960
    12  F   -0.322185
    13  F   -0.320762
    14  F   -0.328762
    15  F   -0.338824
    16  F   -0.320584
    17  H    0.196790
    18  H    0.191054
 Sum of Mulliken charges =  -0.00000
 Mulliken charges with hydrogens summed into heavy atoms:
               1
     1  Co  -0.204812
     2  S    1.657603
     3  C   -0.108580
     4  C    0.282034
     5  O   -0.212318
     6  C    0.294910
     7  O   -0.213893
     8  C    0.285216
     9  O   -0.219012
    10  C    0.282928
    11  O   -0.212960
    12  F   -0.322185
    13  F   -0.320762
    14  F   -0.328762
    15  F   -0.338824
    16  F   -0.320584
 Electronic spatial extent (au):  <R**2>=           3805.6213
 Charge=              0.0000 electrons
 Dipole moment (field-independent basis, Debye):
    X=              3.6520    Y=             -0.1585    Z=              0.9659  Tot=              3.7809
 Quadrupole moment (field-independent basis, Debye-Ang):
   XX=           -103.8749   YY=           -100.7908   ZZ=            -99.2182
   XY=              0.3159   XZ=             -2.0456   YZ=             -0.1895
 Traceless Quadrupole moment (field-independent basis, Debye-Ang):
   XX=             -2.5803   YY=              0.5038   ZZ=              2.0765
   XY=              0.3159   XZ=             -2.0456   YZ=             -0.1895
 Octapole moment (field-independent basis, Debye-Ang**2):
  XXX=             -4.4552  YYY=             -0.2148  ZZZ=             -9.5318  XYY=             -5.2581
  XXY=             -0.2754  XXZ=             -2.3071  XZZ=            -12.0866  YZZ=              0.6457
  YYZ=              4.0413  XYZ=              0.3863
 Hexadecapole moment (field-independent basis, Debye-Ang**3):
 XXXX=          -2684.7071 YYYY=           -837.9538 ZZZZ=           -767.7713 XXXY=             -2.2313
 XXXZ=             14.4918 YYYX=              1.5548 YYYZ=             -2.2062 ZZZX=            -19.6937
 ZZZY=              1.1342 XXYY=           -561.9861 XXZZ=           -580.6912 YYZZ=           -259.7596
 XXYZ=              2.3476 YYXZ=              0.8145 ZZXY=              0.6803
 N-N= 1.652889218643D+03 E-N=-6.937343192411D+03  KE= 1.470493884116D+03
   1 Symmetry operations used in ECPInt.
 ECPInt:  NShTT=    2850 NPrTT=   20007 LenC2=    2608 LenP2D=   10893.
 LDataN:  DoStor=T MaxTD1= 5 Len=  102
 Calling FoFJK, ICntrl=      2527 FMM=F ISym2X=0 I1Cent= 0 IOpClX= 0 NMat=1 NMatS=1 NMatT=0.
 ***** Axes restored to original set *****
 -------------------------------------------------------------------
 Center     Atomic                   Forces (Hartrees/Bohr)
 Number     Number              X              Y              Z
 -------------------------------------------------------------------
      1       27          -0.010245907    0.002664739    0.001321193
      2       16          -0.011040429    0.008362141   -0.001684968
      3        6           0.046951357    0.135835339    0.092726428
      4        6           0.003813755   -0.030144919    0.076577623
      5        8          -0.000796819    0.028459646   -0.077751253
      6        6           0.061701572   -0.052463337   -0.019028884
      7        8          -0.060257532    0.052480404    0.019322814
      8        6           0.050728535    0.069562715   -0.016279534
      9        8          -0.046970254   -0.068161318    0.015501954
     10        6          -0.045714938   -0.029090787   -0.065325663
     11        8           0.048066512    0.027018407    0.063070683
     12        9          -0.013430175    0.050002751    0.003727647
     13        9           0.031764621    0.008580680   -0.013328257
     14        9           0.016194471   -0.000379441    0.052044028
     15        9          -0.019149142   -0.004879551   -0.037677852
     16        9           0.004641401   -0.048811973    0.000167912
     17        1           0.012143072   -0.034871229    0.052284305
     18        1          -0.068400101   -0.114164267   -0.145668177
 -------------------------------------------------------------------
 Cartesian Forces:  Max     0.145668177 RMS     0.050925851

 GradGradGradGradGradGradGradGradGradGradGradGradGradGradGradGradGradGrad
 Berny optimization.
 FormGI is forming the generalized inverse of G from B-inverse, IUseBI=4.
 Internal  Forces:  Max     0.196873724 RMS     0.031970397
 Search for a local minimum.
 Step number   1 out of a maximum of   91
 All quantities printed in internal units (Hartrees-Bohrs-Radians)
 Mixed Optimization -- RFO/linear search
 Second derivative matrix not updated -- first step.
 ITU=  0
     Eigenvalues ---    0.00230   0.02120   0.03198   0.04848   0.05366
     Eigenvalues ---    0.05366   0.05372   0.05372   0.05375   0.05375
     Eigenvalues ---    0.05378   0.05378   0.07871   0.07876   0.09515
     Eigenvalues ---    0.12948   0.13195   0.13200   0.13310   0.13444
     Eigenvalues ---    0.13599   0.13670   0.13810   0.13844   0.14060
     Eigenvalues ---    0.14585   0.22304   0.22313   0.22866   0.23231
     Eigenvalues ---    0.23624   0.24809   0.25000   0.25000   0.25000
     Eigenvalues ---    0.25000   0.25000   0.45417   0.51470   0.53447
     Eigenvalues ---    0.55295   0.56092   0.57194   0.66011   1.56086
     Eigenvalues ---    1.56461   1.56637   1.56854
 RFO step:  Lambda=-9.71412118D-02 EMin= 2.30000000D-03
 Linear search not attempted -- first point.
 Maximum step size (   0.300) exceeded in Quadratic search.
    -- Step size scaled by   0.815
 Iteration  1 RMS(Cart)=  0.04665741 RMS(Int)=  0.00142767
 Iteration  2 RMS(Cart)=  0.00140214 RMS(Int)=  0.00015568
 Iteration  3 RMS(Cart)=  0.00000361 RMS(Int)=  0.00015565
 Iteration  4 RMS(Cart)=  0.00000001 RMS(Int)=  0.00015565
 Variable       Old X    -DE/DX   Delta X   Delta X   Delta X     New X
                                 (Linear)    (Quad)   (Total)
    R1        3.83206  -0.00067   0.00000  -0.00237  -0.00237   3.82968
    R2        3.42681   0.00057   0.00000   0.00142   0.00142   3.42822
    R3        3.41591  -0.00097   0.00000  -0.00238  -0.00238   3.41353
    R4        3.45325  -0.00339   0.00000  -0.00864  -0.00864   3.44462
    R5        3.43717  -0.00094   0.00000  -0.00236  -0.00236   3.43481
    R6        3.43396   0.01053   0.00000   0.02486   0.02486   3.45882
    R7        2.97875   0.05158   0.00000   0.06389   0.06389   3.04264
    R8        3.02110   0.03547   0.00000   0.04726   0.04726   3.06836
    R9        2.96933   0.05409   0.00000   0.06589   0.06589   3.03522
   R10        3.00239   0.04175   0.00000   0.05388   0.05388   3.05627
   R11        2.98571   0.04797   0.00000   0.06014   0.06014   3.04585
   R12        1.91494   0.06397   0.00000   0.09458   0.09458   2.00952
   R13        1.73179   0.19687   0.00000   0.21191   0.21191   1.94370
   R14        2.11947   0.08280   0.00000   0.04057   0.04057   2.16004
   R15        2.11986   0.08221   0.00000   0.04032   0.04032   2.16018
   R16        2.12069   0.08422   0.00000   0.04140   0.04140   2.16209
   R17        2.11899   0.08377   0.00000   0.04099   0.04099   2.15999
    A1        1.54825  -0.00503   0.00000  -0.01158  -0.01156   1.53669
    A2        1.48774  -0.00246   0.00000  -0.00456  -0.00455   1.48319
    A3        1.55524  -0.00671   0.00000  -0.01715  -0.01713   1.53811
    A4        1.59323   0.00549   0.00000   0.01312   0.01310   1.60633
    A5        2.05263  -0.00022   0.00000   0.00007  -0.00009   2.05255
    A6        2.16970  -0.00163   0.00000  -0.00523  -0.00553   2.16418
    A7        1.62314   0.00460   0.00000   0.01210   0.01208   1.63521
    A8        1.61512   0.00428   0.00000   0.00868   0.00865   1.62377
    A9        2.05276  -0.00012   0.00000   0.00054   0.00034   2.05311
   A10        1.69435  -0.00147   0.00000  -0.00868  -0.00868   1.68567
   A11        1.62506  -0.00276   0.00000  -0.01076  -0.01076   1.61430
   A12        1.62394  -0.00778   0.00000  -0.02569  -0.02571   1.59822
   A13        1.58357  -0.01036   0.00000  -0.03227  -0.03228   1.55129
   A14        1.50777   0.00357   0.00000   0.01605   0.01606   1.52383
   A15        1.55674   0.00107   0.00000   0.00510   0.00496   1.56170
   A16        1.54638   0.00236   0.00000   0.00937   0.00909   1.55547
   A17        1.51666   0.00559   0.00000   0.02052   0.02050   1.53716
   A18        1.51927   0.00488   0.00000   0.01554   0.01551   1.53478
   A19        1.49750   0.00823   0.00000   0.02480   0.02482   1.52232
   A20        1.58781  -0.00048   0.00000  -0.00324  -0.00362   1.58419
   A21        1.57785  -0.00027   0.00000  -0.00199  -0.00267   1.57518
   A22        2.13775  -0.01277   0.00000  -0.03156  -0.03148   2.10627
   A23        1.87545   0.00355   0.00000   0.00604   0.00610   1.88155
   A24        1.95198  -0.00463   0.00000  -0.02121  -0.02079   1.93120
   A25        1.80427   0.00335   0.00000   0.00893   0.00875   1.81303
   A26        1.72625   0.01318   0.00000   0.04515   0.04492   1.77117
   A27        1.96276  -0.00215   0.00000  -0.00456  -0.00505   1.95771
   A28        3.14148   0.00045   0.00000   0.00154   0.00154   3.14302
   A29        3.20212   0.00210   0.00000   0.00737   0.00738   3.20950
   A30        3.27792  -0.01183   0.00000  -0.04095  -0.04096   3.23696
   A31        3.24899  -0.01055   0.00000  -0.03645  -0.03647   3.21252
   A32        3.15757   0.00148   0.00000   0.00797   0.00797   3.16554
   A33        3.12886   0.00047   0.00000   0.00255   0.00255   3.13142
   A34        3.12829   0.00086   0.00000   0.00464   0.00464   3.13293
   A35        3.16017   0.00073   0.00000   0.00392   0.00392   3.16410
   A36        3.10681   0.00265   0.00000   0.00929   0.00929   3.11610
   A37        3.14116   0.00286   0.00000   0.00993   0.00992   3.15109
   A38        3.13130   0.00042   0.00000   0.00180   0.00188   3.13318
   A39        3.11612   0.00200   0.00000   0.00920   0.00907   3.12518
   A40        3.12661   0.00038   0.00000   0.00206   0.00206   3.12867
   A41        3.14282  -0.00041   0.00000  -0.00221  -0.00221   3.14061
   A42        3.14201   0.00054   0.00000   0.00292   0.00292   3.14493
   A43        3.17010  -0.00161   0.00000  -0.00868  -0.00868   3.16142
    D1        1.04599   0.00172   0.00000   0.00871   0.00887   1.05486
    D2        3.12625   0.00044   0.00000   0.00395   0.00402   3.13028
    D3       -0.99484  -0.00281   0.00000  -0.01133  -0.01142  -1.00625
    D4        3.10269   0.00221   0.00000   0.01032   0.01042   3.11311
    D5       -1.10023   0.00092   0.00000   0.00557   0.00558  -1.09466
    D6        1.06186  -0.00232   0.00000  -0.00972  -0.00986   1.05200
    D7       -1.12440   0.00292   0.00000   0.01290   0.01298  -1.11142
    D8        0.95587   0.00164   0.00000   0.00814   0.00813   0.96400
    D9        3.11796  -0.00161   0.00000  -0.00714  -0.00731   3.11065
   D10       -0.02440   0.00101   0.00000   0.00323   0.00337  -0.02103
   D11       -2.13846   0.00167   0.00000   0.00801   0.00816  -2.13030
   D12        2.12420  -0.00148   0.00000  -0.00504  -0.00529   2.11891
   D13        1.53895   0.00167   0.00000   0.00659   0.00667   1.54563
   D14       -0.57510   0.00232   0.00000   0.01136   0.01146  -0.56364
   D15       -2.59563  -0.00082   0.00000  -0.00169  -0.00199  -2.59762
   D16       -1.57716  -0.00034   0.00000  -0.00261  -0.00239  -1.57956
   D17        2.59197   0.00032   0.00000   0.00216   0.00239   2.59436
   D18        0.57144  -0.00283   0.00000  -0.01089  -0.01106   0.56039
   D19        3.12748   0.00059   0.00000   0.00144   0.00149   3.12898
   D20        1.01343   0.00124   0.00000   0.00621   0.00628   1.01971
   D21       -1.00710  -0.00190   0.00000  -0.00684  -0.00717  -1.01427
         Item               Value     Threshold  Converged?
 Maximum Force            0.196874     0.000450     NO 
 RMS     Force            0.031970     0.000300     NO 
 Maximum Displacement     0.147377     0.001800     NO 
 RMS     Displacement     0.047514     0.001200     NO 
 Predicted change in Energy=-5.134219D-02
 GradGradGradGradGradGradGradGradGradGradGradGradGradGradGradGradGradGrad

                          Input orientation:                          
 ---------------------------------------------------------------------
 Center     Atomic      Atomic             Coordinates (Angstroms)
 Number     Number       Type             X           Y           Z
 ---------------------------------------------------------------------
      1         27           0        0.972137    3.465407    6.543194
      2         16           0        4.031347    2.673410    5.422275
      3          6           0        2.398484    2.118343    6.035274
      4          6           0        1.022433    4.070212    4.833581
      5          8           0        1.023544    4.447911    3.754743
      6          6           0       -0.331506    4.634557    6.986541
      7          8           0       -1.157148    5.377827    7.255957
      8          6           0       -0.058451    2.002840    6.891666
      9          8           0       -0.697239    1.078604    7.107918
     10          6           0        2.078523    4.050560    7.861242
     11          8           0        2.752184    4.407561    8.712838
     12          9           0        3.722022    4.252558    5.477204
     13          9           0        5.503864    3.059224    4.857247
     14          9           0        4.638977    2.755690    6.906793
     15          9           0        3.513677    2.650571    3.890225
     16          9           0        4.476180    1.128856    5.302460
     17          1           0        2.631705    1.549060    6.902641
     18          1           0        2.078067    1.526712    5.257301
 ---------------------------------------------------------------------
                    Distance matrix (angstroms):
                    1          2          3          4          5
     1  Co   0.000000
     2  S    3.352981   0.000000
     3  C    2.026581   1.830330   0.000000
     4  C    1.814138   3.369152   2.673458   0.000000
     5  O    2.956927   3.869935   3.538103   1.143044   0.000000
     6  C    1.806364   5.032644   3.832634   2.605162   3.509346
     7  O    2.949447   6.131618   4.975623   3.511173   4.228316
     8  C    1.822812   4.397183   2.604472   3.110956   4.121816
     9  O    2.966910   5.267288   3.437313   4.132747   5.055403
    10  C    1.817621   3.414473   2.677685   3.206626   4.258428
    11  O    2.960334   3.933363   3.540476   4.260808   5.250956
    12  F    3.052508   1.610096   2.572561   2.781238   3.207307
    13  F    4.852210   1.623704   3.452012   4.594114   4.818427
    14  F    3.752548   1.606168   2.487079   4.370992   5.086294
    15  F    3.763194   1.617307   2.475511   3.018543   3.074012
    16  F    4.390581   1.611794   2.415144   4.560679   5.033115
    17  H    2.560420   2.326939   1.063391   3.636891   4.571519
    18  H    2.575876   2.270999   1.028560   2.786269   3.450088
                    6          7          8          9         10
     6  C    0.000000
     7  O    1.143119   0.000000
     8  C    2.647544   3.567965   0.000000
     9  O    3.576771   4.326286   1.144128   0.000000
    10  C    2.629524   3.549306   3.114465   4.135804   0.000000
    11  O    3.541295   4.283316   4.122987   5.055318   1.143015
    12  F    4.342246   5.313801   4.621028   5.680060   2.902676
    13  F    6.408362   7.449752   6.016157   6.887819   4.662584
    14  F    5.314339   6.371230   4.757398   5.597166   3.023836
    15  F    5.320601   6.370454   4.710446   5.527788   4.448439
    16  F    6.183842   7.321495   4.883882   5.479641   4.564261
    17  H    4.278779   5.398119   2.728182   3.368284   2.735402
    18  H    4.295929   5.412238   2.731767   3.365695   3.626337
                   11         12         13         14         15
    11  O    0.000000
    12  F    3.381411   0.000000
    13  F    4.924970   2.232343   0.000000
    14  F    3.090383   2.263878   2.245172   0.000000
    15  F    5.188881   2.264569   2.250105   3.221340   0.000000
    16  F    5.035151   3.218199   2.231741   2.290628   2.288326
    17  H    3.385610   3.244929   3.835822   2.342032   3.326538
    18  H    4.549117   3.190797   3.774218   3.284733   2.278801
                   16         17         18
    16  F    0.000000
    17  H    2.477749   0.000000
    18  H    2.431312   1.736133   0.000000
 Stoichiometry    C5H2CoF5O4S
 Framework group  C1[X(C5H2CoF5O4S)]
 Deg. of freedom    48
 Full point group                 C1      NOp   1
 Largest Abelian subgroup         C1      NOp   1
 Largest concise Abelian subgroup C1      NOp   1
                         Standard orientation:                         
 ---------------------------------------------------------------------
 Center     Atomic      Atomic             Coordinates (Angstroms)
 Number     Number       Type             X           Y           Z
 ---------------------------------------------------------------------
      1         27           0        1.359377   -0.010646    0.061463
      2         16           0       -1.993578   -0.005228    0.073738
      3          6           0       -0.426567   -0.053431    1.018335
      4          6           0        0.884918    1.601894   -0.620959
      5          8           0        0.612580    2.629606   -1.040708
      6          6           0        2.970295    0.046123   -0.753812
      7          8           0        3.987412    0.092874   -1.273434
      8          6           0        2.076789   -0.040675    1.736892
      9          8           0        2.517430   -0.060100    2.792584
     10          6           0        0.923417   -1.603584   -0.697639
     11          8           0        0.674468   -2.619672   -1.158154
     12          9           0       -1.325164    0.097465   -1.387454
     13          9           0       -3.437481    0.046061   -0.667158
     14          9           0       -2.035377   -1.604055   -0.073845
     15          9           0       -2.035976    1.610141    0.140561
     16          9           0       -2.799370   -0.091093    1.467010
     17          1           0       -0.483350   -0.966655    1.560182
     18          1           0       -0.530488    0.767461    1.629295
 ---------------------------------------------------------------------
 Rotational constants (GHZ):           0.6926624           0.2979311           0.2918920
 Basis read from rwf:  (5D, 7F)
 Pseudo-potential data read from rwf file.
 There are   263 symmetry adapted cartesian basis functions of A   symmetry.
 There are   246 symmetry adapted basis functions of A   symmetry.
   246 basis functions,   510 primitive gaussians,   263 cartesian basis functions
    71 alpha electrons       71 beta electrons
       nuclear repulsion energy      1644.0246151504 Hartrees.
 NAtoms=   18 NActive=   18 NUniq=   18 SFac= 1.00D+00 NAtFMM=   60 NAOKFM=F Big=F
 Integral buffers will be    131072 words long.
 Raffenetti 2 integral format.
 Two-electron integral symmetry is turned on.
 Nuclear repulsion after empirical dispersion term =     1644.0045817875 Hartrees.
 One-electron integrals computed using PRISM.
   1 Symmetry operations used in ECPInt.
 ECPInt:  NShTT=    2850 NPrTT=   20007 LenC2=    2609 LenP2D=   10906.
 LDataN:  DoStor=T MaxTD1= 4 Len=   56
 NBasis=   246 RedAO= T EigKep=  3.20D-03  NBF=   246
 NBsUse=   246 1.00D-06 EigRej= -1.00D+00 NBFU=   246
 Initial guess from the checkpoint file:  "/scratch/gameelka/Gau-14825.chk"
 B after Tr=    -0.000000   -0.000000    0.000000
         Rot=    0.999919    0.012361   -0.002456    0.001667 Ang=   1.46 deg.
 ExpMin= 2.30D-02 ExpMax= 2.19D+04 ExpMxC= 3.30D+03 IAcc=3 IRadAn=         5 AccDes= 0.00D+00
 Harris functional with IExCor= 1009 and IRadAn=       5 diagonalized for initial guess.
 HarFok:  IExCor= 1009 AccDes= 0.00D+00 IRadAn=         5 IDoV= 1 UseB2=F ITyADJ=14
 ICtDFT=  3500011 ScaDFX=  1.000000  1.000000  1.000000  1.000000
 FoFCou: FMM=F IPFlag=           0 FMFlag=      100000 FMFlg1=           0
         NFxFlg=           0 DoJE=T BraDBF=F KetDBF=T FulRan=T
         wScrn=  0.000000 ICntrl=       500 IOpCl=  0 I1Cent=   200000004 NGrid=           0
         NMat0=    1 NMatS0=      1 NMatT0=    0 NMatD0=    1 NMtDS0=    0 NMtDT0=    0
 Petite list used in FoFCou.
 Requested convergence on RMS density matrix=1.00D-08 within 128 cycles.
 Requested convergence on MAX density matrix=1.00D-06.
 Requested convergence on             energy=1.00D-06.
 No special actions if energy rises.
 EnCoef did     5 forward-backward iterations
 EnCoef did     8 forward-backward iterations
 SCF Done:  E(RTPSS-TPSS) =  -1535.14303353     A.U. after   14 cycles
            NFock= 14  Conv=0.45D-08     -V/T= 2.0447
   1 Symmetry operations used in ECPInt.
 ECPInt:  NShTT=    2850 NPrTT=   20007 LenC2=    2609 LenP2D=   10906.
 LDataN:  DoStor=T MaxTD1= 5 Len=  102
 Calling FoFJK, ICntrl=      2527 FMM=F ISym2X=0 I1Cent= 0 IOpClX= 0 NMat=1 NMatS=1 NMatT=0.
 ***** Axes restored to original set *****
 -------------------------------------------------------------------
 Center     Atomic                   Forces (Hartrees/Bohr)
 Number     Number              X              Y              Z
 -------------------------------------------------------------------
      1       27          -0.007656291    0.001416796    0.001482550
      2       16          -0.009950590    0.001945658   -0.001251009
      3        6           0.011886318    0.035184191    0.020919115
      4        6           0.000928877   -0.010332179    0.026806469
      5        8          -0.000410488    0.009585050   -0.026761013
      6        6           0.022289397   -0.018931656   -0.006954990
      7        8          -0.020544964    0.018350455    0.006848295
      8        6           0.019117709    0.026243701   -0.006046498
      9        8          -0.016537127   -0.024061259    0.005416641
     10        6          -0.016759783   -0.010079202   -0.022968140
     11        8           0.016809310    0.009365464    0.021460970
     12        9          -0.002538953    0.023729675    0.001072205
     13        9           0.008108513    0.002318803   -0.003100323
     14        9           0.010191192    0.000743939    0.023315081
     15        9          -0.005731999   -0.000465298   -0.019546502
     16        9           0.007285601   -0.023122881   -0.001281671
     17        1           0.003548163   -0.012230772    0.015011659
     18        1          -0.020034884   -0.029660487   -0.034422840
 -------------------------------------------------------------------
 Cartesian Forces:  Max     0.035184191 RMS     0.016215391

 GradGradGradGradGradGradGradGradGradGradGradGradGradGradGradGradGradGrad
 Berny optimization.
 Using GEDIIS/GDIIS optimizer.
 FormGI is forming the generalized inverse of G from B-inverse, IUseBI=4.
 Internal  Forces:  Max     0.049339484 RMS     0.010321306
 Search for a local minimum.
 Step number   2 out of a maximum of   91
 All quantities printed in internal units (Hartrees-Bohrs-Radians)
 Mixed Optimization -- RFO/linear search
 Update second derivatives using D2CorX and points    1    2
 DE= -4.96D-02 DEPred=-5.13D-02 R= 9.66D-01
 TightC=F SS=  1.41D+00  RLast= 3.02D-01 DXNew= 5.0454D-01 9.0603D-01
 Trust test= 9.66D-01 RLast= 3.02D-01 DXMaxT set to 5.05D-01
 ITU=  1  0
 Use linear search instead of GDIIS.
     Eigenvalues ---    0.00230   0.02120   0.03305   0.04864   0.05366
     Eigenvalues ---    0.05367   0.05372   0.05372   0.05375   0.05375
     Eigenvalues ---    0.05378   0.05379   0.07909   0.07912   0.09313
     Eigenvalues ---    0.12777   0.13134   0.13197   0.13216   0.13361
     Eigenvalues ---    0.13667   0.13683   0.13795   0.14085   0.14306
     Eigenvalues ---    0.14683   0.22294   0.22404   0.22863   0.23232
     Eigenvalues ---    0.23619   0.24696   0.24995   0.25000   0.25000
     Eigenvalues ---    0.25000   0.25076   0.45490   0.50800   0.51771
     Eigenvalues ---    0.54176   0.55757   0.56824   0.71339   1.49082
     Eigenvalues ---    1.56230   1.56548   1.56773
 RFO step:  Lambda=-4.82486273D-03 EMin= 2.29998025D-03
 Quartic linear search produced a step of  0.63702.
 Iteration  1 RMS(Cart)=  0.06469170 RMS(Int)=  0.00139877
 Iteration  2 RMS(Cart)=  0.00190450 RMS(Int)=  0.00020474
 Iteration  3 RMS(Cart)=  0.00000302 RMS(Int)=  0.00020473
 Iteration  4 RMS(Cart)=  0.00000000 RMS(Int)=  0.00020473
 Variable       Old X    -DE/DX   Delta X   Delta X   Delta X     New X
                                 (Linear)    (Quad)   (Total)
    R1        3.82968   0.00280  -0.00151   0.03440   0.03289   3.86257
    R2        3.42822  -0.00028   0.00090  -0.00265  -0.00175   3.42648
    R3        3.41353  -0.00166  -0.00152  -0.01003  -0.01154   3.40199
    R4        3.44462  -0.00333  -0.00550  -0.01949  -0.02499   3.41963
    R5        3.43481  -0.00129  -0.00150  -0.00784  -0.00934   3.42547
    R6        3.45882   0.00839   0.01584   0.04100   0.05684   3.51566
    R7        3.04264   0.02380   0.04070   0.02748   0.06818   3.11082
    R8        3.06836   0.00898   0.03010  -0.00191   0.02819   3.09655
    R9        3.03522   0.02544   0.04197   0.02942   0.07140   3.10661
   R10        3.05627   0.02036   0.03432   0.02713   0.06145   3.11772
   R11        3.04585   0.02426   0.03831   0.03234   0.07065   3.11650
   R12        2.00952   0.01957   0.06025   0.01055   0.07080   2.08031
   R13        1.94370   0.04934   0.13499  -0.01863   0.11636   2.06006
   R14        2.16004   0.02842   0.02584   0.00098   0.02682   2.18686
   R15        2.16018   0.02838   0.02569   0.00114   0.02683   2.18701
   R16        2.16209   0.02969   0.02637   0.00183   0.02820   2.19029
   R17        2.15999   0.02882   0.02611   0.00105   0.02716   2.18715
    A1        1.53669  -0.00063  -0.00737   0.00400  -0.00335   1.53334
    A2        1.48319  -0.00113  -0.00290  -0.00213  -0.00501   1.47818
    A3        1.53811  -0.00190  -0.01091  -0.00743  -0.01831   1.51979
    A4        1.60633   0.00128   0.00835   0.00293   0.01124   1.61757
    A5        2.05255  -0.00025  -0.00006  -0.00157  -0.00181   2.05074
    A6        2.16418  -0.00040  -0.00352  -0.00157  -0.00544   2.15874
    A7        1.63521   0.00194   0.00769   0.00883   0.01649   1.65170
    A8        1.62377   0.00049   0.00551  -0.00575  -0.00028   1.62349
    A9        2.05311   0.00001   0.00022   0.00217   0.00209   2.05520
   A10        1.68567   0.00239  -0.00553   0.02424   0.01871   1.70437
   A11        1.61430   0.00002  -0.00685   0.00489  -0.00196   1.61233
   A12        1.59822   0.00086  -0.01638   0.01924   0.00280   1.60102
   A13        1.55129  -0.00069  -0.02056   0.01078  -0.00979   1.54150
   A14        1.52383  -0.00155   0.01023  -0.01690  -0.00667   1.51717
   A15        1.56170  -0.00020   0.00316  -0.00347  -0.00039   1.56131
   A16        1.55547   0.00046   0.00579   0.00876   0.01433   1.56980
   A17        1.53716  -0.00032   0.01306  -0.01279   0.00022   1.53738
   A18        1.53478  -0.00057   0.00988  -0.01180  -0.00203   1.53275
   A19        1.52232  -0.00014   0.01581  -0.01794  -0.00212   1.52020
   A20        1.58419  -0.00060  -0.00231  -0.01206  -0.01462   1.56957
   A21        1.57518   0.00013  -0.00170   0.00200  -0.00012   1.57506
   A22        2.10627  -0.00226  -0.02005   0.00678  -0.01300   2.09327
   A23        1.88155   0.00153   0.00389   0.00023   0.00394   1.88549
   A24        1.93120  -0.00291  -0.01324  -0.03287  -0.04606   1.88514
   A25        1.81303  -0.00013   0.00558  -0.00555  -0.00018   1.81285
   A26        1.77117   0.00514   0.02861   0.05501   0.08360   1.85477
   A27        1.95771  -0.00131  -0.00322  -0.02355  -0.02819   1.92952
   A28        3.14302   0.00066   0.00098   0.00692   0.00790   3.15091
   A29        3.20950   0.00084   0.00470   0.00734   0.01204   3.22154
   A30        3.23696   0.00171  -0.02609   0.03502   0.00892   3.24588
   A31        3.21252   0.00087  -0.02323   0.02413   0.00084   3.21336
   A32        3.16554   0.00104   0.00508   0.03015   0.03522   3.20076
   A33        3.13142   0.00040   0.00163   0.01157   0.01320   3.14461
   A34        3.13293  -0.00012   0.00295  -0.00269   0.00027   3.13320
   A35        3.16410   0.00055   0.00250   0.01583   0.01833   3.18242
   A36        3.11610   0.00126   0.00592   0.01127   0.01718   3.13327
   A37        3.15109  -0.00031   0.00632  -0.00809  -0.00181   3.14927
   A38        3.13318   0.00072   0.00120   0.01359   0.01486   3.14803
   A39        3.12518   0.00053   0.00578   0.00978   0.01548   3.14066
   A40        3.12867   0.00009   0.00131   0.00271   0.00402   3.13268
   A41        3.14061  -0.00011  -0.00141  -0.00343  -0.00483   3.13577
   A42        3.14493   0.00041   0.00186   0.01196   0.01382   3.15875
   A43        3.16142  -0.00064  -0.00553  -0.01903  -0.02457   3.13685
    D1        1.05486   0.00141   0.00565   0.04388   0.04957   1.10443
    D2        3.13028   0.00097   0.00256   0.04127   0.04370  -3.10921
    D3       -1.00625  -0.00147  -0.00727  -0.00839  -0.01540  -1.02166
    D4        3.11311   0.00133   0.00664   0.04200   0.04860  -3.12148
    D5       -1.09466   0.00088   0.00355   0.03940   0.04272  -1.05193
    D6        1.05200  -0.00155  -0.00628  -0.01026  -0.01638   1.03562
    D7       -1.11142   0.00165   0.00827   0.04523   0.05347  -1.05795
    D8        0.96400   0.00121   0.00518   0.04263   0.04760   1.01160
    D9        3.11065  -0.00122  -0.00466  -0.00703  -0.01151   3.09915
   D10       -0.02103   0.00097   0.00215   0.04283   0.04505   0.02402
   D11       -2.13030   0.00050   0.00520   0.04282   0.04824  -2.08205
   D12        2.11891   0.00002  -0.00337   0.04962   0.04604   2.16496
   D13        1.54563   0.00088   0.00425   0.04094   0.04520   1.59082
   D14       -0.56364   0.00041   0.00730   0.04093   0.04839  -0.51525
   D15       -2.59762  -0.00007  -0.00127   0.04772   0.04619  -2.55142
   D16       -1.57956   0.00034  -0.00153   0.03116   0.02972  -1.54984
   D17        2.59436  -0.00013   0.00152   0.03115   0.03292   2.62728
   D18        0.56039  -0.00060  -0.00704   0.03794   0.03072   0.59110
   D19        3.12898   0.00025   0.00095   0.02924   0.03019  -3.12402
   D20        1.01971  -0.00022   0.00400   0.02923   0.03339   1.05310
   D21       -1.01427  -0.00070  -0.00457   0.03602   0.03119  -0.98308
         Item               Value     Threshold  Converged?
 Maximum Force            0.049339     0.000450     NO 
 RMS     Force            0.010321     0.000300     NO 
 Maximum Displacement     0.207755     0.001800     NO 
 RMS     Displacement     0.065561     0.001200     NO 
 Predicted change in Energy=-5.589955D-03
 GradGradGradGradGradGradGradGradGradGradGradGradGradGradGradGradGradGrad

                          Input orientation:                          
 ---------------------------------------------------------------------
 Center     Atomic      Atomic             Coordinates (Angstroms)
 Number     Number       Type             X           Y           Z
 ---------------------------------------------------------------------
      1         27           0        0.948995    3.465599    6.527696
      2         16           0        4.056613    2.690029    5.443509
      3          6           0        2.387760    2.104969    6.021225
      4          6           0        0.978310    4.035268    4.806544
      5          8           0        0.929167    4.411210    3.713177
      6          6           0       -0.328564    4.648255    6.986053
      7          8           0       -1.153751    5.403517    7.282750
      8          6           0       -0.055853    2.009734    6.908941
      9          8           0       -0.692097    1.067940    7.136132
     10          6           0        2.091574    4.060208    7.803140
     11          8           0        2.784223    4.459947    8.639798
     12          9           0        3.783836    4.307079    5.587143
     13          9           0        5.555212    3.079858    4.907489
     14          9           0        4.666970    2.673283    6.969862
     15          9           0        3.549590    2.745537    3.874504
     16          9           0        4.491156    1.110386    5.254598
     17          1           0        2.614209    1.500586    6.913034
     18          1           0        1.991453    1.476494    5.223503
 ---------------------------------------------------------------------
                    Distance matrix (angstroms):
                    1          2          3          4          5
     1  Co   0.000000
     2  S    3.381458   0.000000
     3  C    2.043984   1.860409   0.000000
     4  C    1.813214   3.419260   2.681054   0.000000
     5  O    2.969190   3.967043   3.573979   1.157238   0.000000
     6  C    1.800256   5.044191   3.844166   2.614179   3.514227
     7  O    2.957562   6.155787   5.001416   3.542512   4.250303
     8  C    1.809588   4.418446   2.601606   3.097153   4.117069
     9  O    2.968526   5.295884   3.435690   4.125806   5.051987
    10  C    1.812679   3.362533   2.661937   3.196806   4.266402
    11  O    2.969473   3.868830   3.544013   4.258581   5.264523
    12  F    3.103072   1.646173   2.643245   2.924756   3.416391
    13  F    4.898071   1.638622   3.496222   4.676647   4.959755
    14  F    3.827090   1.643949   2.533317   4.487890   5.253338
    15  F    3.784311   1.649827   2.523606   3.023836   3.109198
    16  F    4.440126   1.649178   2.449732   4.593014   5.095016
    17  H    2.604362   2.377984   1.100855   3.679413   4.642217
    18  H    2.596955   2.405402   1.090138   2.783457   3.467289
                    6          7          8          9         10
     6  C    0.000000
     7  O    1.157318   0.000000
     8  C    2.653697   3.586484   0.000000
     9  O    3.601852   4.362550   1.159051   0.000000
    10  C    2.621163   3.550693   3.100883   4.140941   0.000000
    11  O    3.529840   4.270778   4.131034   5.084439   1.157389
    12  F    4.357199   5.334513   4.665636   5.738063   2.799168
    13  F    6.434214   7.486751   6.052687   6.931344   4.619813
    14  F    5.371790   6.436837   4.769598   5.596818   3.041476
    15  F    5.323734   6.387677   4.769532   5.607536   4.391851
    16  F    6.224480   7.376269   4.921481   5.514353   4.577610
    17  H    4.309648   5.437562   2.718176   3.341947   2.759910
    18  H    4.306870   5.436388   2.704905   3.320618   3.652415
                   11         12         13         14         15
    11  O    0.000000
    12  F    3.215789   0.000000
    13  F    4.849037   2.259595   0.000000
    14  F    3.086356   2.315410   2.282030   0.000000
    15  F    5.121818   2.329467   2.280646   3.291656   0.000000
    16  F    5.058928   3.290856   2.265285   2.327163   2.337718
    17  H    3.430516   3.316989   3.894330   2.364800   3.414308
    18  H    4.604406   3.370027   3.920589   3.411813   2.420342
                   16         17         18
    16  F    0.000000
    17  H    2.534876   0.000000
    18  H    2.526563   1.800811   0.000000
 Stoichiometry    C5H2CoF5O4S
 Framework group  C1[X(C5H2CoF5O4S)]
 Deg. of freedom    48
 Full point group                 C1      NOp   1
 Largest Abelian subgroup         C1      NOp   1
 Largest concise Abelian subgroup C1      NOp   1
                         Standard orientation:                         
 ---------------------------------------------------------------------
 Center     Atomic      Atomic             Coordinates (Angstroms)
 Number     Number       Type             X           Y           Z
 ---------------------------------------------------------------------
      1         27           0        1.378023   -0.002427    0.068707
      2         16           0       -2.003418    0.008163    0.065884
      3          6           0       -0.419356    0.046682    1.040762
      4          6           0        0.935494    1.585285   -0.686992
      5          8           0        0.719948    2.616024   -1.166906
      6          6           0        2.970885   -0.053144   -0.768634
      7          8           0        3.997948   -0.086161   -1.301020
      8          6           0        2.088543    0.033359    1.732585
      9          8           0        2.529319    0.070186    2.803920
     10          6           0        0.868814   -1.609567   -0.597336
     11          8           0        0.589315   -2.645151   -1.032074
     12          9           0       -1.334876   -0.100189   -1.434515
     13          9           0       -3.462533   -0.004787   -0.679701
     14          9           0       -2.083991   -1.632505    0.131358
     15          9           0       -2.022531    1.652821   -0.063201
     16          9           0       -2.826543    0.103457    1.491777
     17          1           0       -0.483478   -0.844593    1.683722
     18          1           0       -0.452717    0.955470    1.641921
 ---------------------------------------------------------------------
 Rotational constants (GHZ):           0.6814137           0.2937862           0.2882134
 Basis read from rwf:  (5D, 7F)
 Pseudo-potential data read from rwf file.
 There are   263 symmetry adapted cartesian basis functions of A   symmetry.
 There are   246 symmetry adapted basis functions of A   symmetry.
   246 basis functions,   510 primitive gaussians,   263 cartesian basis functions
    71 alpha electrons       71 beta electrons
       nuclear repulsion energy      1628.1529899800 Hartrees.
 NAtoms=   18 NActive=   18 NUniq=   18 SFac= 1.00D+00 NAtFMM=   60 NAOKFM=F Big=F
 Integral buffers will be    131072 words long.
 Raffenetti 2 integral format.
 Two-electron integral symmetry is turned on.
 Nuclear repulsion after empirical dispersion term =     1628.1328377039 Hartrees.
 One-electron integrals computed using PRISM.
   1 Symmetry operations used in ECPInt.
 ECPInt:  NShTT=    2850 NPrTT=   20007 LenC2=    2607 LenP2D=   10860.
 LDataN:  DoStor=T MaxTD1= 4 Len=   56
 NBasis=   246 RedAO= T EigKep=  3.17D-03  NBF=   246
 NBsUse=   246 1.00D-06 EigRej= -1.00D+00 NBFU=   246
 Initial guess from the checkpoint file:  "/scratch/gameelka/Gau-14825.chk"
 B after Tr=     0.000000   -0.000000    0.000000
         Rot=    0.999345    0.035498   -0.000225    0.007085 Ang=   4.15 deg.
 ExpMin= 2.30D-02 ExpMax= 2.19D+04 ExpMxC= 3.30D+03 IAcc=3 IRadAn=         5 AccDes= 0.00D+00
 Harris functional with IExCor= 1009 and IRadAn=       5 diagonalized for initial guess.
 HarFok:  IExCor= 1009 AccDes= 0.00D+00 IRadAn=         5 IDoV= 1 UseB2=F ITyADJ=14
 ICtDFT=  3500011 ScaDFX=  1.000000  1.000000  1.000000  1.000000
 FoFCou: FMM=F IPFlag=           0 FMFlag=      100000 FMFlg1=           0
         NFxFlg=           0 DoJE=T BraDBF=F KetDBF=T FulRan=T
         wScrn=  0.000000 ICntrl=       500 IOpCl=  0 I1Cent=   200000004 NGrid=           0
         NMat0=    1 NMatS0=      1 NMatT0=    0 NMatD0=    1 NMtDS0=    0 NMtDT0=    0
 Petite list used in FoFCou.
 Requested convergence on RMS density matrix=1.00D-08 within 128 cycles.
 Requested convergence on MAX density matrix=1.00D-06.
 Requested convergence on             energy=1.00D-06.
 No special actions if energy rises.
 SCF Done:  E(RTPSS-TPSS) =  -1535.15095163     A.U. after   13 cycles
            NFock= 13  Conv=0.95D-08     -V/T= 2.0452
   1 Symmetry operations used in ECPInt.
 ECPInt:  NShTT=    2850 NPrTT=   20007 LenC2=    2607 LenP2D=   10860.
 LDataN:  DoStor=T MaxTD1= 5 Len=  102
 Calling FoFJK, ICntrl=      2527 FMM=F ISym2X=0 I1Cent= 0 IOpClX= 0 NMat=1 NMatS=1 NMatT=0.
 ***** Axes restored to original set *****
 -------------------------------------------------------------------
 Center     Atomic                   Forces (Hartrees/Bohr)
 Number     Number              X              Y              Z
 -------------------------------------------------------------------
      1       27           0.001577395    0.000215614   -0.000088411
      2       16          -0.000876651   -0.004604219   -0.004103441
      3        6          -0.000066803   -0.000201153    0.009277862
      4        6          -0.001139500    0.001593625   -0.002367920
      5        8           0.001075362   -0.001441232    0.002964919
      6        6          -0.001685028    0.001069153    0.000695124
      7        8           0.002628679   -0.001971533   -0.000963641
      8        6          -0.002056020   -0.001661060   -0.000273011
      9        8           0.001709081    0.001966224   -0.000114097
     10        6           0.001294180    0.003494793    0.003487928
     11        8          -0.002203169   -0.002172505   -0.002791082
     12        9          -0.001701855   -0.000303570   -0.000604471
     13        9          -0.002529381   -0.000385348    0.001230518
     14        9          -0.000737394    0.001222892    0.001580295
     15        9          -0.000457620    0.001509083    0.001184009
     16        9           0.000602354   -0.001775953   -0.000694626
     17        1           0.000421136    0.002967816   -0.005823299
     18        1           0.004145234    0.000477373   -0.002596655
 -------------------------------------------------------------------
 Cartesian Forces:  Max     0.009277862 RMS     0.002408701

 GradGradGradGradGradGradGradGradGradGradGradGradGradGradGradGradGradGrad
 Berny optimization.
 Using GEDIIS/GDIIS optimizer.
 FormGI is forming the generalized inverse of G from B-inverse, IUseBI=4.
 Internal  Forces:  Max     0.006257922 RMS     0.001719622
 Search for a local minimum.
 Step number   3 out of a maximum of   91
 All quantities printed in internal units (Hartrees-Bohrs-Radians)
 Mixed Optimization -- RFO/linear search
 Update second derivatives using D2CorX and points    1    2    3
 DE= -7.92D-03 DEPred=-5.59D-03 R= 1.42D+00
 TightC=F SS=  1.41D+00  RLast= 3.08D-01 DXNew= 8.4853D-01 9.2307D-01
 Trust test= 1.42D+00 RLast= 3.08D-01 DXMaxT set to 8.49D-01
 ITU=  1  1  0
 Use linear search instead of GDIIS.
     Eigenvalues ---    0.00232   0.02127   0.03293   0.04784   0.05366
     Eigenvalues ---    0.05367   0.05372   0.05372   0.05375   0.05377
     Eigenvalues ---    0.05378   0.05412   0.07893   0.07931   0.09452
     Eigenvalues ---    0.12726   0.13060   0.13160   0.13183   0.13253
     Eigenvalues ---    0.13682   0.13723   0.13786   0.14112   0.14452
     Eigenvalues ---    0.14777   0.21928   0.22340   0.22867   0.23229
     Eigenvalues ---    0.23567   0.24843   0.24980   0.25000   0.25000
     Eigenvalues ---    0.25049   0.25354   0.39145   0.46970   0.51758
     Eigenvalues ---    0.53909   0.55735   0.56733   0.65769   1.52096
     Eigenvalues ---    1.56284   1.56555   1.56801
 RFO step:  Lambda=-1.19011187D-03 EMin= 2.31735718D-03
 Quartic linear search produced a step of -0.12656.
 Iteration  1 RMS(Cart)=  0.05652166 RMS(Int)=  0.00139221
 Iteration  2 RMS(Cart)=  0.00151809 RMS(Int)=  0.00008236
 Iteration  3 RMS(Cart)=  0.00000089 RMS(Int)=  0.00008236
 Variable       Old X    -DE/DX   Delta X   Delta X   Delta X     New X
                                 (Linear)    (Quad)   (Total)
    R1        3.86257   0.00001  -0.00416   0.00387  -0.00029   3.86228
    R2        3.42648  -0.00052   0.00022  -0.00220  -0.00198   3.42450
    R3        3.40199  -0.00133   0.00146  -0.00632  -0.00486   3.39713
    R4        3.41963  -0.00013   0.00316  -0.00340  -0.00024   3.41939
    R5        3.42547   0.00035   0.00118   0.00026   0.00144   3.42691
    R6        3.51566  -0.00603  -0.00719  -0.01483  -0.02203   3.49364
    R7        3.11082  -0.00007  -0.00863   0.00866   0.00003   3.11084
    R8        3.09655  -0.00281  -0.00357  -0.00121  -0.00478   3.09177
    R9        3.10661   0.00118  -0.00904   0.01102   0.00199   3.10860
   R10        3.11772  -0.00093  -0.00778   0.00631  -0.00147   3.11625
   R11        3.11650   0.00194  -0.00894   0.01216   0.00322   3.11971
   R12        2.08031  -0.00626  -0.00896  -0.00333  -0.01229   2.06802
   R13        2.06006   0.00012  -0.01473   0.01575   0.00102   2.06108
   R14        2.18686  -0.00332  -0.00339   0.00198  -0.00142   2.18544
   R15        2.18701  -0.00341  -0.00340   0.00192  -0.00147   2.18554
   R16        2.19029  -0.00256  -0.00357   0.00259  -0.00098   2.18930
   R17        2.18715  -0.00409  -0.00344   0.00159  -0.00184   2.18530
    A1        1.53334  -0.00116   0.00042  -0.00615  -0.00573   1.52761
    A2        1.47818   0.00041   0.00063   0.00090   0.00154   1.47973
    A3        1.51979   0.00276   0.00232   0.00947   0.01179   1.53158
    A4        1.61757  -0.00002  -0.00142  -0.00057  -0.00199   1.61558
    A5        2.05074   0.00016   0.00023   0.00111   0.00134   2.05207
    A6        2.15874   0.00003   0.00069  -0.00064   0.00008   2.15882
    A7        1.65170  -0.00030  -0.00209   0.00083  -0.00126   1.65045
    A8        1.62349  -0.00168   0.00004  -0.00439  -0.00435   1.61914
[...]
      1         27           0        0.955949    3.466068    6.536111
      2         16           0        4.036106    2.684383    5.433591
      3          6           0        2.384602    2.104285    6.030602
      4          6           0        1.000261    4.046991    4.817917
      5          8           0        0.984018    4.416499    3.723422
      6          6           0       -0.317645    4.649606    6.988055
      7          8           0       -1.133885    5.414812    7.277952
      8          6           0       -0.052288    2.010517    6.902731
      9          8           0       -0.679449    1.064375    7.130552
     10          6           0        2.080939    4.060514    7.829018
     11          8           0        2.763848    4.438462    8.680822
     12          9           0        3.733846    4.302891    5.534655
     13          9           0        5.524929    3.083659    4.895849
     14          9           0        4.642511    2.722374    6.965944
     15          9           0        3.526914    2.707434    3.865985
     16          9           0        4.494480    1.104533    5.276363
     17          1           0        2.630232    1.490925    6.899013
     18          1           0        2.023432    1.481571    5.210518
 ---------------------------------------------------------------------
                    Distance matrix (angstroms):
                    1          2          3          4          5
     1  Co   0.000000
     2  S    3.363621   0.000000
     3  C    2.037410   1.849433   0.000000
     4  C    1.814284   3.384096   2.676025   0.000000
     5  O    2.969062   3.903863   3.554019   1.155301   0.000000
     6  C    1.796402   5.023307   3.833734   2.609506   3.522286
     7  O    2.952176   6.130720   4.989511   3.532320   4.256387
     8  C    1.808198   4.396298   2.589948   3.098634   4.119549
     9  O    2.965807   5.266930   3.417558   4.131065   5.060869
    10  C    1.813994   3.384448   2.674574   3.199183   4.264490
    11  O    2.968810   3.903837   3.551884   4.264448   5.267266
    12  F    3.069185   1.649590   2.626841   2.837548   3.294696
    13  F    4.869525   1.632539   3.479726   4.626737   4.875543
    14  F    3.785311   1.648417   2.520923   4.431096   5.173836
    15  F    3.783511   1.648391   2.520760   3.014061   3.067173
    16  F    4.436779   1.652498   2.453562   4.591056   5.069919
    17  H    2.614596   2.355480   1.091184   3.677124   4.620972
    18  H    2.614373   2.355287   1.091217   2.789695   3.450455
                    6          7          8          9         10
     6  C    0.000000
     7  O    1.155780   0.000000
     8  C    2.653768   3.591639   0.000000
     9  O    3.606256   4.376590   1.157764   0.000000
    10  C    2.609110   3.531698   3.100186   4.133333   0.000000
    11  O    3.522164   4.256010   4.121546   5.063999   1.155326
    12  F    4.318236   5.288691   4.632647   5.701933   2.838124
    13  F    6.400405   7.446375   6.023667   6.896789   4.628044
    14  F    5.321453   6.380700   4.748882   5.576676   3.016151
    15  F    5.319773   6.379221   4.745335   5.572300   4.430271
    16  F    6.217232   7.366366   4.913143   5.496286   4.591192
    17  H    4.321479   5.450603   2.732381   3.345077   2.787368
    18  H    4.321658   5.450993   2.729831   3.341578   3.675703
                   11         12         13         14         15
    11  O    0.000000
    12  F    3.295093   0.000000
    13  F    4.876995   2.258889   0.000000
    14  F    3.068410   2.317822   2.279141   0.000000
    15  F    5.173140   2.317922   2.279085   3.294620   0.000000
    16  F    5.069567   3.297692   2.263527   2.343929   2.344065
    17  H    3.446835   3.314603   3.863773   2.360130   3.388685
    18  H    4.618921   3.315182   3.863443   3.388317   2.360290
                   16         17         18
    16  F    0.000000
    17  H    2.501541   0.000000
    18  H    2.500514   1.794243   0.000000
 Stoichiometry    C5H2CoF5O4S
 Framework group  C1[X(C5H2CoF5O4S)]
 Deg. of freedom    48
 Full point group                 C1      NOp   1
 Largest Abelian subgroup         C1      NOp   1
 Largest concise Abelian subgroup C1      NOp   1
                         Standard orientation:                         
 ---------------------------------------------------------------------
 Center     Atomic      Atomic             Coordinates (Angstroms)
 Number     Number       Type             X           Y           Z
 ---------------------------------------------------------------------
      1         27           0        1.370755   -0.000075    0.071364
      2         16           0       -1.992863    0.000463    0.066890
      3          6           0       -0.420956    0.004452    1.041309
      4          6           0        0.903215    1.595548   -0.654596
      5          8           0        0.645976    2.627048   -1.106875
      6          6           0        2.961315   -0.005035   -0.763593
      7          8           0        3.982339   -0.008513   -1.305188
      8          6           0        2.073719    0.011139    1.737286
      9          8           0        2.501394    0.018730    2.813137
     10          6           0        0.903189   -1.603583   -0.636252
     11          8           0        0.645286   -2.640130   -1.076518
     12          9           0       -1.304824   -0.008000   -1.432335
     13          9           0       -3.438681   -0.002354   -0.691256
     14          9           0       -2.037284   -1.647022    0.033751
     15          9           0       -2.034722    1.647553    0.016512
     16          9           0       -2.833184    0.008453    1.489756
     17          1           0       -0.504749   -0.889746    1.661044
     18          1           0       -0.504413    0.904477    1.652654
 ---------------------------------------------------------------------
 Rotational constants (GHZ):           0.6807469           0.2963811           0.2906441

 **********************************************************************

            Population analysis using the SCF Density.

 **********************************************************************

 Orbital symmetries:
       Occupied  (A) (A) (A) (A) (A) (A) (A) (A) (A) (A) (A) (A)
                 (A) (A) (A) (A) (A) (A) (A) (A) (A) (A) (A) (A)
                 (A) (A) (A) (A) (A) (A) (A) (A) (A) (A) (A) (A)
                 (A) (A) (A) (A) (A) (A) (A) (A) (A) (A) (A) (A)
                 (A) (A) (A) (A) (A) (A) (A) (A) (A) (A) (A) (A)
                 (A) (A) (A) (A) (A) (A) (A) (A) (A) (A) (A)
       Virtual   (A) (A) (A) (A) (A) (A) (A) (A) (A) (A) (A) (A)
                 (A) (A) (A) (A) (A) (A) (A) (A) (A) (A) (A) (A)
                 (A) (A) (A) (A) (A) (A) (A) (A) (A) (A) (A) (A)
                 (A) (A) (A) (A) (A) (A) (A) (A) (A) (A) (A) (A)
                 (A) (A) (A) (A) (A) (A) (A) (A) (A) (A) (A) (A)
                 (A) (A) (A) (A) (A) (A) (A) (A) (A) (A) (A) (A)
                 (A) (A) (A) (A) (A) (A) (A) (A) (A) (A) (A) (A)
                 (A) (A) (A) (A) (A) (A) (A) (A) (A) (A) (A) (A)
                 (A) (A) (A) (A) (A) (A) (A) (A) (A) (A) (A) (A)
                 (A) (A) (A) (A) (A) (A) (A) (A) (A) (A) (A) (A)
                 (A) (A) (A) (A) (A) (A) (A) (A) (A) (A) (A) (A)
                 (A) (A) (A) (A) (A) (A) (A) (A) (A) (A) (A) (A)
                 (A) (A) (A) (A) (A) (A) (A) (A) (A) (A) (A) (A)
                 (A) (A) (A) (A) (A) (A) (A) (A) (A) (A) (A) (A)
                 (A) (A) (A) (A) (A) (A) (A)
 The electronic state is 1-A.
 Alpha  occ. eigenvalues --  -88.71871 -24.44710 -24.44585 -24.44559 -24.44555
 Alpha  occ. eigenvalues --  -24.44304 -19.02641 -19.01546 -19.01058 -19.01056
 Alpha  occ. eigenvalues --  -10.15804 -10.14284 -10.13897 -10.13895 -10.06573
 Alpha  occ. eigenvalues --   -8.04043  -6.02426  -6.02422  -6.01841  -3.66043
 Alpha  occ. eigenvalues --   -2.40111  -2.37805  -2.37517  -1.22367  -1.13880
 Alpha  occ. eigenvalues --   -1.13781  -1.11584  -1.10221  -1.09797  -1.08602
 Alpha  occ. eigenvalues --   -1.08191  -1.08184  -0.76309  -0.66132  -0.57770
 Alpha  occ. eigenvalues --   -0.55178  -0.55003  -0.54312  -0.53719  -0.53572
 Alpha  occ. eigenvalues --   -0.51874  -0.46819  -0.45811  -0.45214  -0.45115
 Alpha  occ. eigenvalues --   -0.44443  -0.44045  -0.43588  -0.43372  -0.43289
 Alpha  occ. eigenvalues --   -0.42765  -0.42436  -0.42421  -0.42048  -0.41933
 Alpha  occ. eigenvalues --   -0.41437  -0.41425  -0.38705  -0.38487  -0.36470
 Alpha  occ. eigenvalues --   -0.36351  -0.36330  -0.34371  -0.33380  -0.33275
 Alpha  occ. eigenvalues --   -0.33016  -0.29918  -0.29398  -0.29308  -0.24983
 Alpha  occ. eigenvalues --   -0.24179
 Alpha virt. eigenvalues --   -0.11856  -0.09730  -0.09558  -0.08653  -0.07474
 Alpha virt. eigenvalues --   -0.06976  -0.06812  -0.06574  -0.05318  -0.04971
 Alpha virt. eigenvalues --    0.00745   0.01150   0.01412   0.03232   0.04168
 Alpha virt. eigenvalues --    0.05836   0.10945   0.13993   0.16576   0.22499
 Alpha virt. eigenvalues --    0.22908   0.24100   0.26183   0.27860   0.28127
 Alpha virt. eigenvalues --    0.34301   0.36470   0.37222   0.37653   0.43939
 Alpha virt. eigenvalues --    0.44725   0.45737   0.46337   0.49277   0.52963
 Alpha virt. eigenvalues --    0.55676   0.58284   0.58748   0.59140   0.60809
 Alpha virt. eigenvalues --    0.61390   0.61701   0.63927   0.64518   0.64583
 Alpha virt. eigenvalues --    0.65980   0.69351   0.73485   0.74232   0.77871
 Alpha virt. eigenvalues --    0.79409   0.80516   0.81329   0.81816   0.82241
 Alpha virt. eigenvalues --    0.84199   0.84450   0.84905   0.88951   0.89066
 Alpha virt. eigenvalues --    0.92667   0.93135   0.93527   0.94245   0.97299
 Alpha virt. eigenvalues --    0.98516   0.99959   1.01906   1.02719   1.03807
 Alpha virt. eigenvalues --    1.10542   1.10565   1.14781   1.15026   1.15643
 Alpha virt. eigenvalues --    1.15979   1.17328   1.17427   1.18425   1.20599
 Alpha virt. eigenvalues --    1.22047   1.25190   1.33093   1.33116   1.35152
 Alpha virt. eigenvalues --    1.36466   1.40826   1.41970   1.42360   1.42774
 Alpha virt. eigenvalues --    1.43136   1.43293   1.43487   1.43838   1.44813
 Alpha virt. eigenvalues --    1.45972   1.47430   1.48003   1.48948   1.50248
 Alpha virt. eigenvalues --    1.50383   1.53266   1.55455   1.57326   1.61064
 Alpha virt. eigenvalues --    1.64668   1.66289   1.67926   1.69428   1.69688
 Alpha virt. eigenvalues --    1.70436   1.71529   1.71587   1.72249   1.74391
 Alpha virt. eigenvalues --    1.75445   1.79782   1.79829   1.80480   1.85373
 Alpha virt. eigenvalues --    1.86592   1.87453   1.88270   1.88493   1.89732
 Alpha virt. eigenvalues --    1.89813   1.89852   1.90332   1.90430   1.90771
 Alpha virt. eigenvalues --    1.91192   1.91912   1.93761   1.94635   1.94785
 Alpha virt. eigenvalues --    1.95443   1.98000   1.98026   1.99437   2.00221
 Alpha virt. eigenvalues --    2.03171   2.10280   2.19011   2.21177   2.22739
 Alpha virt. eigenvalues --    2.25163   2.26066   2.27389   2.32368   2.34113
 Alpha virt. eigenvalues --    2.35364   2.43821   2.46410   2.47702   2.51410
 Alpha virt. eigenvalues --    2.51494   2.51999   2.52744   2.58051   2.61762
 Alpha virt. eigenvalues --    2.62954   2.63533   2.68356   2.69214   2.72468
 Alpha virt. eigenvalues --    2.83215   2.87822   2.91778   2.94021   2.97851
 Alpha virt. eigenvalues --    2.99126   2.99769   3.28879   3.45711  42.03090
          Condensed to atoms (all electrons):
               1          2          3          4          5          6
     1  Co  16.007063  -0.024065   0.183851   0.245759   0.000185   0.253463
     2  S   -0.024065  13.156845   0.250738  -0.003573   0.000955   0.000199
     3  C    0.183851   0.250738   5.497622   0.006399  -0.001201  -0.018101
     4  C    0.245759  -0.003573   0.006399   4.938174   0.601904  -0.018088
     5  O    0.000185   0.000955  -0.001201   0.601904   7.632806  -0.002561
     6  C    0.253463   0.000199  -0.018101  -0.018088  -0.002561   4.920889
     7  O    0.001408  -0.000001   0.000008  -0.001867   0.000016   0.608654
     8  C    0.266232   0.001834   0.007041  -0.031859  -0.000286  -0.020998
     9  O    0.000773   0.000009  -0.000899  -0.000217   0.000001  -0.002016
    10  C    0.245823  -0.003546   0.006431  -0.027481  -0.000114  -0.018076
    11  O    0.000148   0.000954  -0.001208  -0.000114   0.000000  -0.002563
    12  F    0.019050   0.178834  -0.034912   0.001026  -0.000728   0.000054
    13  F    0.003647   0.223057  -0.001765  -0.000019  -0.000000  -0.000000
    14  F    0.002608   0.176098  -0.028899   0.000018  -0.000000   0.000002
    15  F    0.002625   0.176028  -0.028893   0.007314  -0.001301   0.000002
    16  F    0.003599   0.180695  -0.024627   0.000043  -0.000000  -0.000000
    17  H   -0.031944  -0.013336   0.348733   0.001357  -0.000010   0.000473
    18  H   -0.031974  -0.013308   0.348740  -0.006125   0.000295   0.000472
               7          8          9         10         11         12
     1  Co   0.001408   0.266232   0.000773   0.245823   0.000148   0.019050
     2  S   -0.000001   0.001834   0.000009  -0.003546   0.000954   0.178834
     3  C    0.000008   0.007041  -0.000899   0.006431  -0.001208  -0.034912
     4  C   -0.001867  -0.031859  -0.000217  -0.027481  -0.000114   0.001026
     5  O    0.000016  -0.000286   0.000001  -0.000114   0.000000  -0.000728
     6  C    0.608654  -0.020998  -0.002016  -0.018076  -0.002563   0.000054
     7  O    7.630094  -0.001576   0.000015  -0.001873   0.000016   0.000000
     8  C   -0.001576   4.935211   0.604675  -0.031827  -0.000284  -0.000002
     9  O    0.000015   0.604675   7.638785  -0.000215   0.000001  -0.000000
    10  C   -0.001873  -0.031827  -0.000215   4.938303   0.601865   0.001013
    11  O    0.000016  -0.000284   0.000001   0.601865   7.632868  -0.000727
    12  F    0.000000  -0.000002  -0.000000   0.001013  -0.000727   9.238649
    13  F    0.000000  -0.000000   0.000000  -0.000019  -0.000000  -0.030159
    14  F    0.000000  -0.000000  -0.000000   0.007277  -0.001292  -0.019643
    15  F    0.000000  -0.000000  -0.000000   0.000018  -0.000000  -0.019633
    16  F    0.000000   0.000013  -0.000000   0.000043  -0.000000   0.000424
    17  H   -0.000000  -0.006881   0.000202  -0.006159   0.000298   0.000924
    18  H   -0.000000  -0.006898   0.000205   0.001361  -0.000010   0.000925
              13         14         15         16         17         18
     1  Co   0.003647   0.002608   0.002625   0.003599  -0.031944  -0.031974
     2  S    0.223057   0.176098   0.176028   0.180695  -0.013336  -0.013308
     3  C   -0.001765  -0.028899  -0.028893  -0.024627   0.348733   0.348740
     4  C   -0.000019   0.000018   0.007314   0.000043   0.001357  -0.006125
     5  O   -0.000000  -0.000000  -0.001301  -0.000000  -0.000010   0.000295
     6  C   -0.000000   0.000002   0.000002  -0.000000   0.000473   0.000472
     7  O    0.000000   0.000000   0.000000   0.000000  -0.000000  -0.000000
     8  C   -0.000000  -0.000000  -0.000000   0.000013  -0.006881  -0.006898
     9  O    0.000000  -0.000000  -0.000000  -0.000000   0.000202   0.000205
    10  C   -0.000019   0.007277   0.000018   0.000043  -0.006159   0.001361
    11  O   -0.000000  -0.001292  -0.000000  -0.000000   0.000298  -0.000010
    12  F   -0.030159  -0.019643  -0.019633   0.000424   0.000924   0.000925
    13  F    9.203466  -0.028536  -0.028542  -0.031201  -0.000033  -0.000033
    14  F   -0.028536   9.255322   0.000460  -0.018130   0.002475   0.001782
    15  F   -0.028542   0.000460   9.255316  -0.018120   0.001782   0.002465
    16  F   -0.031201  -0.018130  -0.018120   9.248998   0.000114   0.000117
    17  H   -0.000033   0.002475   0.001782   0.000114   0.517327  -0.020108
    18  H   -0.000033   0.001782   0.002465   0.000117  -0.020108   0.517353
 Mulliken charges:
               1
     1  Co  -0.148251
     2  S    1.711582
     3  C   -0.509061
     4  C    0.287348
     5  O   -0.229961
     6  C    0.298194
     7  O   -0.234893
     8  C    0.285604
     9  O   -0.241318
    10  C    0.287176
    11  O   -0.229955
    12  F   -0.335097
    13  F   -0.309863
    14  F   -0.349543
    15  F   -0.349522
    16  F   -0.341969
    17  H    0.204787
    18  H    0.204742
 Sum of Mulliken charges =  -0.00000
 Mulliken charges with hydrogens summed into heavy atoms:
               1
     1  Co  -0.148251
     2  S    1.711582
     3  C   -0.099533
     4  C    0.287348
     5  O   -0.229961
     6  C    0.298194
     7  O   -0.234893
     8  C    0.285604
     9  O   -0.241318
    10  C    0.287176
    11  O   -0.229955
    12  F   -0.335097
    13  F   -0.309863
    14  F   -0.349543
    15  F   -0.349522
    16  F   -0.341969
 Electronic spatial extent (au):  <R**2>=           3825.4503
 Charge=              0.0000 electrons
 Dipole moment (field-independent basis, Debye):
    X=              3.2734    Y=              0.0051    Z=              1.0042  Tot=              3.4239
 Quadrupole moment (field-independent basis, Debye-Ang):
   XX=           -105.1378   YY=           -102.3081   ZZ=           -100.4837
   XY=             -0.0088   XZ=             -1.6305   YZ=              0.0060
 Traceless Quadrupole moment (field-independent basis, Debye-Ang):
   XX=             -2.4946   YY=              0.3351   ZZ=              2.1595
   XY=             -0.0088   XZ=             -1.6305   YZ=              0.0060
 Octapole moment (field-independent basis, Debye-Ang**2):
  XXX=            -11.6631  YYY=              0.0956  ZZZ=            -11.0269  XYY=             -4.6223
  XXY=             -0.0186  XXZ=             -4.9247  XZZ=            -13.4596  YZZ=             -0.1248
  YYZ=              4.8121  XYZ=             -0.0532
 Hexadecapole moment (field-independent basis, Debye-Ang**3):
 XXXX=          -2667.1297 YYYY=           -868.4526 ZZZZ=           -804.4456 XXXY=              0.1342
 XXXZ=             24.1172 YYYX=             -0.0019 YYYZ=              0.1892 ZZZX=            -21.6959
 ZZZY=             -0.1859 XXYY=           -565.6709 XXZZ=           -591.1333 YYZZ=           -268.4219
 XXYZ=             -0.2221 YYXZ=              0.6376 ZZXY=             -0.1621
 N-N= 1.631695942059D+03 E-N=-6.893755683862D+03  KE= 1.468782573930D+03
 Unable to Open any file for archive entry.
 1\1\GINC-CEDAR5\FOpt\RTPSSTPSS\Gen\C5H2Co1F5O4S1\GAMEELKA\24-Mar-2024\
 0\\#n TPSSTPSS/Gen Pseudo=Read EmpiricalDispersion=GD3 opt\\Title\\0,1
 \Co,0.9559494178,3.4660680042,6.5361110988\S,4.0361059355,2.6843825992
 ,5.4335905622\C,2.3846016387,2.1042848318,6.0306017684\C,1.0002612827,
 4.0469913925,4.8179174384\O,0.984018346,4.4164993686,3.7234220696\C,-0
 .317645176,4.6496060651,6.9880552275\O,-1.1338850078,5.414812322,7.277
 9522572\C,-0.0522880818,2.0105172399,6.9027307212\O,-0.679448503,1.064
 375427,7.1305520488\C,2.0809389362,4.0605138441,7.8290180607\O,2.76384
 78403,4.4384621027,8.6808216376\F,3.733845574,4.302891478,5.5346549862
 \F,5.5249289277,3.0836592509,4.8958487635\F,4.6425113095,2.7223735867,
 6.9659439377\F,3.5269140609,2.7074339023,3.8659852728\F,4.4944796663,1
 .1045333682,5.2763631287\H,2.6302322171,1.490924654,6.8990126122\H,2.0
 234316159,1.4815705626,5.2105184087\\Version=ES64L-G16RevC.01\State=1-
 A\HF=-1535.1516448\RMSD=3.807e-09\RMSF=3.045e-05\Dipole=-1.2652693,-0.
 0832032,0.4547537\Quadrupole=-1.9346583,1.967409,-0.0327508,-0.279927,
 0.7846446,0.0891779\PG=C01 [X(C5H2Co1F5O4S1)]\\@
 The archive entry for this job was punched.


 YOU CANNOT THROW TO THE GROUND THE LETTERS OF
 THE GREEK ALPHABET AND PICK UP THE ILIAD.
        - RUFUS CHOATE, 1799-1859
 Job cpu time:       0 days  0 hours 40 minutes  4.6 seconds.
 Elapsed time:       0 days  0 hours 40 minutes 11.1 seconds.
 File lengths (MBytes):  RWF=     42 Int=      0 D2E=      0 Chk=      6 Scr=      1
 Normal termination of Gaussian 16 at Sun Mar 24 20:13:49 2024.
