 Entering Gaussian System, Link 0=g16
 Input=ir-full.inp
 Output=ir-full.log
 Initial command:
 /opt/software/gaussian/g16.c01/l1.exe "/scratch/gameelka/Gau-54350.inp" -scrdir="/scratch/gameelka/"
 Entering Link 1 = /opt/software/gaussian/g16.c01/l1.exe PID=     54351.
  
 Copyright (c) 1988-2019, Gaussian, Inc.  All Rights Reserved.
  
 This is part of the Gaussian(R) 16 program.  It is based on
 the Gaussian(R) 09 system (copyright 2009, Gaussian, Inc.),
 the Gaussian(R) 03 system (copyright 2003, Gaussian, Inc.),
 the Gaussian(R) 98 system (copyright 1998, Gaussian, Inc.),
 the Gaussian(R) 94 system (copyright 1995, Gaussian, Inc.),
 the Gaussian 92(TM) system (copyright 1992, Gaussian, Inc.),
 the Gaussian 90(TM) system (copyright 1990, Gaussian, Inc.),
 the Gaussian 88(TM) system (copyright 1988, Gaussian, Inc.),
 the Gaussian 86(TM) system (copyright 1986, Carnegie Mellon
 University), and the Gaussian 82(TM) system (copyright 1983,
 Carnegie Mellon University). Gaussian is a federally registered
 trademark of Gaussian, Inc.
  
 This software contains proprietary and confidential information,
 including trade secrets, belonging to Gaussian, Inc.
  
 This software is provided under written license and may be
 used, copied, transmitted, or stored only in accord with that
 written license.
  
 The following legend is applicable only to US Government
 contracts under FAR:
  
                    RESTRICTED RIGHTS LEGEND
  
 Use, reproduction and disclosure by the US Government is
 subject to restrictions as set forth in subparagraphs (a)
 and (c) of the Commercial Computer Software - Restricted
 Rights clause in FAR 52.227-19.
  
 Gaussian, Inc.
 340 Quinnipiac St., Bldg. 40, Wallingford CT 06492
  
  
 ---------------------------------------------------------------
 Warning -- This program may not be used in any manner that
 competes with the business of Gaussian, Inc. or will provide
 assistance to any competitor of Gaussian, Inc.  The licensee
 of this program is prohibited from giving any competitor of
 Gaussian, Inc. access to this program.  By using this program,
 the user acknowledges that Gaussian, Inc. is engaged in the
 business of creating and licensing software in the field of
 computational chemistry and represents and warrants to the
 licensee that it is not a competitor of Gaussian, Inc. and that
 it will not use this program in any manner prohibited above.
 ---------------------------------------------------------------
  

 Cite this work as:
 Gaussian 16, Revision C.01,
 M. J. Frisch, G. W. Trucks, H. B. Schlegel, G. E. Scuseria, 
 M. A. Robb, J. R. Cheeseman, G. Scalmani, V. Barone, 
 G. A. Petersson, H. Nakatsuji, X. Li, M. Caricato, A. V. Marenich, 
 J. Bloino, B. G. Janesko, R. Gomperts, B. Mennucci, H. P. Hratchian, 
 J. V. Ortiz, A. F. Izmaylov, J. L. Sonnenberg, D. Williams-Young, 
 F. Ding, F. Lipparini, F. Egidi, J. Goings, B. Peng, A. Petrone, 
 T. Henderson, D. Ranasinghe, V. G. Zakrzewski, J. Gao, N. Rega, 
 G. Zheng, W. Liang, M. Hada, M. Ehara, K. Toyota, R. Fukuda, 
 J. Hasegawa, M. Ishida, T. Nakajima, Y. Honda, O. Kitao, H. Nakai, 
 T. Vreven, K. Throssell, J. A. Montgomery, Jr., J. E. Peralta, 
 F. Ogliaro, M. J. Bearpark, J. J. Heyd, E. N. Brothers, K. N. Kudin, 
 V. N. Staroverov, T. A. Keith, R. Kobayashi, J. Normand, 
 K. Raghavachari, A. P. Rendell, J. C. Burant, S. S. Iyengar, 
 J. Tomasi, M. Cossi, J. M. Millam, M. Klene, C. Adamo, R. Cammi, 
 J. W. Ochterski, R. L. Martin, K. Morokuma, O. Farkas, 
 J. B. Foresman, and D. J. Fox, Gaussian, Inc., Wallingford CT, 2019.
 
 ******************************************
 Gaussian 16:  ES64L-G16RevC.01  3-Jul-2019
                25-Mar-2024 
 ******************************************
 %NProcShared=8
 Will use up to    8 processors via shared memory.
 -------------------------------------------------------
 #n TPSSTPSS/Gen Pseudo=Read EmpiricalDispersion=GD3 opt
 -------------------------------------------------------
 1/18=20,19=15,26=3,38=1/1,3;
 2/9=110,12=2,17=6,18=5,40=1/2;
 3/5=7,11=2,16=1,17=8,25=1,30=1,71=1,74=2523,124=31/1,2,3;
 4//1;
 5/5=2,38=5/2;
 6/7=2,8=2,9=2,10=2,28=1/1;
 7//1,2,3,16;
 1/18=20,19=15,26=3/3(2);
 2/9=110/2;
 99//99;
 2/9=110/2;
 3/5=7,6=1,11=2,16=1,17=8,25=1,30=1,71=1,74=2523,82=7,124=31/1,2,3;
 4/5=5,16=3,69=1/1;
 5/5=2,38=5/2;
 7//1,2,3,16;
 1/18=20,19=15,26=3/3(-5);
 2/9=110/2;
 6/7=2,8=2,9=2,10=2,19=2,28=1/1;
 99/9=1/99;
 -----
 Title
 -----
 Symbolic Z-matrix:
 Charge =  0 Multiplicity = 1
 Ir                    2.6066   -0.5276    14.7 
 Cl                    3.9516    1.3757    15.1095 
 Cl                    4.5544   -1.7616    14.2198 
 Cl                    0.6808    0.7414    15.112 
 N                     2.7263   -1.0506    16.6828 
 N                     1.4866   -2.072     14.1863 
 N                     2.2863   -0.1911    12.7422 
 C                     3.0375   -2.3033    17.0549 
 C                     3.0428   -2.6649    18.3937 
 C                     2.7475   -1.7604    19.3728 
 C                     2.4544   -0.4772    18.9787 
 C                     2.4559   -0.1656    17.679 
 C                     1.0428   -2.128     12.987 
 C                     1.5282   -1.0579    12.1328 
 H                     2.9838   -2.9826    16.4601 
 H                     3.2185   -3.3113    18.4598 
 H                     2.8399   -2.2157    20.1364 
 H                     2.2416    0.0572    19.5221 
 H                     2.3098    0.7146    17.4954 
 H                     1.0375   -2.5687    14.6611 
 H                     0.2499   -2.8158    12.6565 
 H                     1.3026   -0.9739    11.396 
 H                     2.5824    0.308     12.3384 
 

 GradGradGradGradGradGradGradGradGradGradGradGradGradGradGradGradGradGrad
 Berny optimization.
 Initialization pass.
                           ----------------------------
                           !    Initial Parameters    !
                           ! (Angstroms and Degrees)  !
 --------------------------                            --------------------------
 ! Name  Definition              Value          Derivative Info.                !
 --------------------------------------------------------------------------------
 ! R1    R(1,2)                  2.3663         estimate D2E/DX2                !
 ! R2    R(1,3)                  2.3553         estimate D2E/DX2                !
 ! R3    R(1,4)                  2.3428         estimate D2E/DX2                !
 ! R4    R(1,5)                  2.0541         estimate D2E/DX2                !
 ! R5    R(1,6)                  1.9757         estimate D2E/DX2                !
 ! R6    R(1,7)                  2.0122         estimate D2E/DX2                !
 ! R7    R(5,8)                  1.3433         estimate D2E/DX2                !
 ! R8    R(5,12)                 1.3597         estimate D2E/DX2                !
 ! R9    R(6,13)                 1.28           estimate D2E/DX2                !
 ! R10   R(6,20)                 0.8209         estimate D2E/DX2                !
 ! R11   R(7,14)                 1.3029         estimate D2E/DX2                !
 ! R12   R(7,23)                 0.707          estimate D2E/DX2                !
 ! R13   R(8,9)                  1.3868         estimate D2E/DX2                !
 ! R14   R(8,15)                 0.9045         estimate D2E/DX2                !
 ! R15   R(9,10)                 1.3653         estimate D2E/DX2                !
 ! R16   R(9,16)                 0.6731         estimate D2E/DX2                !
 ! R17   R(10,11)                1.374          estimate D2E/DX2                !
 ! R18   R(10,17)                0.8938         estimate D2E/DX2                !
 ! R19   R(11,12)                1.3365         estimate D2E/DX2                !
 ! R20   R(11,18)                0.7913         estimate D2E/DX2                !
 ! R21   R(12,19)                0.9109         estimate D2E/DX2                !
 ! R22   R(13,14)                1.4527         estimate D2E/DX2                !
 ! R23   R(13,21)                1.1004         estimate D2E/DX2                !
 ! R24   R(14,22)                0.7751         estimate D2E/DX2                !
 ! A1    A(2,1,3)               89.2343         estimate D2E/DX2                !
 ! A2    A(2,1,4)               90.0641         estimate D2E/DX2                !
 ! A3    A(2,1,5)               90.2649         estimate D2E/DX2                !
 ! A4    A(2,1,7)               97.1431         estimate D2E/DX2                !
 ! A5    A(3,1,5)               90.8718         estimate D2E/DX2                !
 ! A6    A(3,1,6)               90.3579         estimate D2E/DX2                !
 ! A7    A(3,1,7)               91.1968         estimate D2E/DX2                !
 ! A8    A(4,1,5)               90.9203         estimate D2E/DX2                !
 ! A9    A(4,1,6)               90.1806         estimate D2E/DX2                !
 ! A10   A(4,1,7)               87.1154         estimate D2E/DX2                !
 ! A11   A(5,1,6)               94.8753         estimate D2E/DX2                !
 ! A12   A(6,1,7)               77.7314         estimate D2E/DX2                !
 ! A13   A(1,5,8)              121.2191         estimate D2E/DX2                !
 ! A14   A(1,5,12)             122.0002         estimate D2E/DX2                !
 ! A15   A(8,5,12)             116.7495         estimate D2E/DX2                !
 ! A16   A(1,6,13)             118.3177         estimate D2E/DX2                !
 ! A17   A(1,6,20)             129.2526         estimate D2E/DX2                !
 ! A18   A(13,6,20)            109.0126         estimate D2E/DX2                !
 ! A19   A(1,7,14)             115.8787         estimate D2E/DX2                !
 ! A20   A(1,7,23)             127.3812         estimate D2E/DX2                !
 ! A21   A(14,7,23)            116.5017         estimate D2E/DX2                !
 ! A22   A(5,8,9)              120.7605         estimate D2E/DX2                !
 ! A23   A(5,8,15)             120.2943         estimate D2E/DX2                !
 ! A24   A(9,8,15)             116.0559         estimate D2E/DX2                !
 ! A25   A(8,9,10)             121.2492         estimate D2E/DX2                !
 ! A26   A(8,9,16)             110.2552         estimate D2E/DX2                !
 ! A27   A(10,9,16)            128.481          estimate D2E/DX2                !
 ! A28   A(9,10,11)            117.3338         estimate D2E/DX2                !
 ! A29   A(9,10,17)            104.6453         estimate D2E/DX2                !
 ! A30   A(11,10,17)           137.9724         estimate D2E/DX2                !
 ! A31   A(10,11,12)           119.7637         estimate D2E/DX2                !
 ! A32   A(10,11,18)           119.4143         estimate D2E/DX2                !
 ! A33   A(12,11,18)           120.707          estimate D2E/DX2                !
 ! A34   A(5,12,11)            124.1217         estimate D2E/DX2                !
 ! A35   A(5,12,19)            120.8737         estimate D2E/DX2                !
 ! A36   A(11,12,19)           114.9035         estimate D2E/DX2                !
 ! A37   A(6,13,14)            113.7565         estimate D2E/DX2                !
 ! A38   A(6,13,21)            123.9561         estimate D2E/DX2                !
 ! A39   A(14,13,21)           121.6383         estimate D2E/DX2                !
 ! A40   A(7,14,13)            114.1716         estimate D2E/DX2                !
 ! A41   A(7,14,22)            122.8109         estimate D2E/DX2                !
 ! A42   A(13,14,22)           122.7861         estimate D2E/DX2                !
 ! A43   L(2,1,6,3,-1)         179.5922         estimate D2E/DX2                !
 ! A44   L(3,1,4,2,-1)         179.2984         estimate D2E/DX2                !
 ! A45   L(5,1,7,2,-1)         187.408          estimate D2E/DX2                !
 ! A46   L(2,1,6,3,-2)         185.1347         estimate D2E/DX2                !
 ! A47   L(3,1,4,2,-2)         178.2111         estimate D2E/DX2                !
 ! A48   L(5,1,7,2,-2)         181.9786         estimate D2E/DX2                !
 ! D1    D(2,1,5,8)           -131.6255         estimate D2E/DX2                !
 ! D2    D(2,1,5,12)            50.4718         estimate D2E/DX2                !
 ! D3    D(3,1,5,8)            -42.3873         estimate D2E/DX2                !
 ! D4    D(3,1,5,12)           139.7101         estimate D2E/DX2                !
 ! D5    D(4,1,5,8)            138.3062         estimate D2E/DX2                !
 ! D6    D(4,1,5,12)           -39.5965         estimate D2E/DX2                !
 ! D7    D(6,1,5,8)             48.0464         estimate D2E/DX2                !
 ! D8    D(6,1,5,12)          -129.8563         estimate D2E/DX2                !
 ! D9    D(3,1,6,13)           -94.5491         estimate D2E/DX2                !
 ! D10   D(3,1,6,20)           108.7887         estimate D2E/DX2                !
 ! D11   D(4,1,6,13)            83.6064         estimate D2E/DX2                !
 ! D12   D(4,1,6,20)           -73.0558         estimate D2E/DX2                !
 ! D13   D(5,1,6,13)           174.5454         estimate D2E/DX2                !
 ! D14   D(5,1,6,20)            17.8832         estimate D2E/DX2                !
 ! D15   D(7,1,6,13)            -3.4022         estimate D2E/DX2                !
 ! D16   D(7,1,6,20)          -160.0644         estimate D2E/DX2                !
 ! D17   D(2,1,7,14)          -178.8283         estimate D2E/DX2                !
 ! D18   D(2,1,7,23)             7.0183         estimate D2E/DX2                !
 ! D19   D(3,1,7,14)            91.7935         estimate D2E/DX2                !
 ! D20   D(3,1,7,23)           -82.3599         estimate D2E/DX2                !
 ! D21   D(4,1,7,14)           -89.1255         estimate D2E/DX2                !
 ! D22   D(4,1,7,23)            96.7211         estimate D2E/DX2                !
 ! D23   D(6,1,7,14)             1.6874         estimate D2E/DX2                !
 ! D24   D(6,1,7,23)          -172.4659         estimate D2E/DX2                !
 ! D25   D(1,5,8,9)           -176.3763         estimate D2E/DX2                !
 ! D26   D(1,5,8,15)           -16.3712         estimate D2E/DX2                !
 ! D27   D(12,5,8,9)             1.632          estimate D2E/DX2                !
 ! D28   D(12,5,8,15)          161.637          estimate D2E/DX2                !
 ! D29   D(1,5,12,11)          176.4666         estimate D2E/DX2                !
 ! D30   D(1,5,12,19)           -7.38           estimate D2E/DX2                !
 ! D31   D(8,5,12,11)           -1.5249         estimate D2E/DX2                !
 ! D32   D(8,5,12,19)          174.6286         estimate D2E/DX2                !
 ! D33   D(1,6,13,14)            4.3316         estimate D2E/DX2                !
 ! D34   D(1,6,13,21)         -166.542          estimate D2E/DX2                !
 ! D35   D(20,6,13,14)         165.3985         estimate D2E/DX2                !
 ! D36   D(20,6,13,21)          -5.4752         estimate D2E/DX2                !
 ! D37   D(1,7,14,13)           -0.0191         estimate D2E/DX2                !
 ! D38   D(1,7,14,22)          174.5902         estimate D2E/DX2                !
 ! D39   D(23,7,14,13)         174.7915         estimate D2E/DX2                !
 ! D40   D(23,7,14,22)         -10.5992         estimate D2E/DX2                !
 ! D41   D(5,8,9,10)            -0.7121         estimate D2E/DX2                !
 ! D42   D(5,8,9,16)          -179.4338         estimate D2E/DX2                !
 ! D43   D(15,8,9,10)         -161.5254         estimate D2E/DX2                !
 ! D44   D(15,8,9,16)           19.7528         estimate D2E/DX2                !
 ! D45   D(8,9,10,11)           -0.4373         estimate D2E/DX2                !
 ! D46   D(8,9,10,17)         -178.3577         estimate D2E/DX2                !
 ! D47   D(16,9,10,11)         178.0307         estimate D2E/DX2                !
 ! D48   D(16,9,10,17)           0.1103         estimate D2E/DX2                !
 ! D49   D(9,10,11,12)           0.5876         estimate D2E/DX2                !
 ! D50   D(9,10,11,18)         176.7154         estimate D2E/DX2                !
 ! D51   D(17,10,11,12)        177.5816         estimate D2E/DX2                !
 ! D52   D(17,10,11,18)         -6.2906         estimate D2E/DX2                !
 ! D53   D(10,11,12,5)           0.4086         estimate D2E/DX2                !
 ! D54   D(10,11,12,19)       -175.9518         estimate D2E/DX2                !
 ! D55   D(18,11,12,5)        -175.6682         estimate D2E/DX2                !
 ! D56   D(18,11,12,19)          7.9714         estimate D2E/DX2                !
 ! D57   D(6,13,14,7)           -2.7443         estimate D2E/DX2                !
 ! D58   D(6,13,14,22)        -177.3551         estimate D2E/DX2                !
 ! D59   D(21,13,14,7)         168.3662         estimate D2E/DX2                !
 ! D60   D(21,13,14,22)         -6.2447         estimate D2E/DX2                !
 --------------------------------------------------------------------------------
 Trust Radius=3.00D-01 FncErr=1.00D-07 GrdErr=1.00D-06 EigMax=2.50D+02 EigMin=1.00D-04
 Number of steps in this run=    138 maximum allowed number of steps=    138.
 GradGradGradGradGradGradGradGradGradGradGradGradGradGradGradGradGradGrad

                          Input orientation:                          
 ---------------------------------------------------------------------
 Center     Atomic      Atomic             Coordinates (Angstroms)
 Number     Number       Type             X           Y           Z
 ---------------------------------------------------------------------
      1         77           0        2.606600   -0.527600   14.700000
      2         17           0        3.951600    1.375700   15.109500
      3         17           0        4.554400   -1.761600   14.219800
      4         17           0        0.680800    0.741400   15.112000
      5          7           0        2.726300   -1.050600   16.682800
      6          7           0        1.486600   -2.072000   14.186300
      7          7           0        2.286300   -0.191100   12.742200
      8          6           0        3.037500   -2.303300   17.054900
      9          6           0        3.042800   -2.664900   18.393700
     10          6           0        2.747500   -1.760400   19.372800
     11          6           0        2.454400   -0.477200   18.978700
     12          6           0        2.455900   -0.165600   17.679000
     13          6           0        1.042800   -2.128000   12.987000
     14          6           0        1.528200   -1.057900   12.132800
     15          1           0        2.983800   -2.982600   16.460100
     16          1           0        3.218500   -3.311300   18.459800
     17          1           0        2.839900   -2.215700   20.136400
     18          1           0        2.241600    0.057200   19.522100
     19          1           0        2.309800    0.714600   17.495400
     20          1           0        1.037500   -2.568700   14.661100
     21          1           0        0.249900   -2.815800   12.656500
     22          1           0        1.302600   -0.973900   11.396000
     23          1           0        2.582400    0.308000   12.338400
 ---------------------------------------------------------------------
                    Distance matrix (angstroms):
                    1          2          3          4          5
     1  Ir   0.000000
     2  Cl   2.366277   0.000000
     3  Cl   2.355265   3.316261   0.000000
     4  Cl   2.342821   3.331738   4.697426   0.000000
     5  N    2.054106   3.140631   3.148625   3.140501   0.000000
     6  N    1.975717   4.337644   3.083645   3.069439   2.968607
     7  N    2.012164   3.291230   3.129545   3.010505   4.057175
     8  C    2.980661   4.260892   3.260708   4.312667   1.343340
     9  C    4.289725   5.285673   4.530157   5.286916   2.373461
    10  C    4.834740   5.427772   5.460613   5.355807   2.782151
    11  C    4.281703   4.543738   5.357874   4.425157   2.381990
    12  C    3.004696   3.348889   4.349366   3.250095   1.359690
    13  C    2.817999   5.024145   3.739703   3.588889   4.201655
    14  C    2.834551   4.544889   3.742813   3.582066   4.705103
    15  H    3.044217   4.664283   2.996092   4.581414   1.961766
    16  H    4.717998   5.807746   4.707844   5.837128   2.917320
    17  H    5.697241   6.277241   6.176720   6.216973   3.646603
    18  H    4.871126   4.912594   6.063948   4.727918   3.086062
    19  H    3.073339   2.970703   4.679674   2.887032   1.987391
    20  H    2.574816   4.924564   3.635209   3.359659   3.040385
    21  H    3.868564   6.106428   4.699358   4.343826   5.045749
    22  H    3.579946   5.131072   4.378187   4.139752   5.475679
    23  H    2.505188   3.270120   3.422235   3.390689   4.554153
                    6          7          8          9         10
     6  N    0.000000
     7  N    2.502545   0.000000
     8  C    3.269198   4.860563   0.000000
     9  C    4.524987   6.215419   1.386783   0.000000
    10  C    5.346657   6.829368   2.398229   1.365269   0.000000
    11  C    5.142677   6.245322   2.715815   2.339759   1.373981
    12  C    4.095468   4.939778   2.301634   2.664911   2.344648
    13  C    1.280006   2.314692   4.534023   5.789703   6.619635
    14  C    2.290631   1.302853   5.296799   6.638925   7.375486
    15  H    2.870708   4.701251   0.904499   1.960414   3.167559
    16  H    4.774740   6.579939   1.738554   0.673107   1.860296
    17  H    6.103750   7.686330   3.089071   1.811064   0.893824
    18  H    5.794332   6.784592   3.506065   3.053692   1.892590
    19  H    4.403742   4.838776   3.135492   3.572849   3.137170
    20  H    0.820876   3.300706   3.130609   4.238253   5.077161
    21  H    2.103082   3.323149   5.232523   6.382674   7.242966
    22  H    3.004239   1.841927   6.066328   7.406455   8.144670
    23  H    3.206230   0.706987   5.410303   6.761417   7.334052
                   11         12         13         14         15
    11  C    0.000000
    12  C    1.336532   0.000000
    13  C    6.373243   5.278516   0.000000
    14  C    6.932633   5.693607   1.452716   0.000000
    15  H    3.591746   3.114464   4.069428   4.954671   0.000000
    16  H    2.980810   3.329660   6.007113   6.925739   2.040080
    17  H    2.123973   3.223225   7.372325   8.192599   3.758194
    18  H    0.791297   1.868845   6.994266   7.506940   4.378023
    19  H    1.908265   0.910937   5.478260   5.701766   3.898129
    20  H    5.002364   4.110288   1.731143   2.985901   2.682498
    21  H    7.092185   6.092249   1.100450   2.235738   4.687153
    22  H    7.685746   6.438908   1.982605   0.775129   5.701440
    23  H    6.687788   5.363050   2.953836   1.737611   5.289384
                   16         17         18         19         20
    16  H    0.000000
    17  H    2.038300   0.000000
    18  H    3.664643   2.429280   0.000000
    19  H    4.238357   3.980269   2.131746   0.000000
    20  H    4.442785   5.775133   5.654602   4.520184   0.000000
    21  H    6.537308   7.938333   7.704379   6.334182   2.167901
    22  H    7.683188   8.961024   8.244901   6.408445   3.643425
    23  H    7.139712   8.200254   7.196151   5.180182   4.007125
                   21         22         23
    21  H    0.000000
    22  H    2.467718   0.000000
    23  H    3.911505   2.041880   0.000000
 Stoichiometry    C7H9Cl3IrN3
 Framework group  C1[X(C7H9Cl3IrN3)]
 Deg. of freedom    63
 Full point group                 C1      NOp   1
 Largest Abelian subgroup         C1      NOp   1
 Largest concise Abelian subgroup C1      NOp   1
                         Standard orientation:                         
 ---------------------------------------------------------------------
 Center     Atomic      Atomic             Coordinates (Angstroms)
 Number     Number       Type             X           Y           Z
 ---------------------------------------------------------------------
      1         77           0        0.487270    0.057067    0.092577
      2         17           0        0.173885    1.549746    1.901711
      3         17           0        0.550723   -1.733122    1.621784
      4         17           0        0.492840    1.862972   -1.399899
      5          7           0       -1.547268   -0.143931   -0.106436
      6          7           0        0.923463   -1.176087   -1.388141
      7          7           0        2.497055    0.141749    0.043588
      8          6           0       -2.120584   -1.354421   -0.209315
      9          6           0       -3.486064   -1.477067   -0.418097
     10          6           0       -4.289931   -0.377460   -0.510949
     11          6           0       -3.693130    0.853201   -0.380081
     12          6           0       -2.373670    0.933102   -0.182699
     13          6           0        2.150083   -1.303085   -1.731199
     14          6           0        3.073617   -0.567201   -0.885064
     15          1           0       -1.620735   -2.080181   -0.413134
     16          1           0       -3.660009   -2.126681   -0.446705
     17          1           0       -5.113430   -0.707961   -0.618371
     18          1           0       -4.128824    1.507785   -0.468629
     19          1           0       -2.056394    1.776238   -0.047554
     20          1           0        0.445650   -1.442276   -2.000248
     21          1           0        2.480927   -1.786972   -2.662534
     22          1           0        3.837304   -0.546346   -1.016107
     23          1           0        2.924429    0.464623    0.505035
 ---------------------------------------------------------------------
 Rotational constants (GHZ):           0.6111494           0.3388515           0.3242118
 General basis read from cards:  (5D, 7F)
 ======================================================================================================
                                       Pseudopotential Parameters
 ======================================================================================================
  Center     Atomic      Valence      Angular      Power
  Number     Number     Electrons     Momentum     of R      Exponent        Coefficient   SO-Coeffient
 ======================================================================================================
    1         77           17
                                      G and up 
                                                     1      823.5880147       -0.15780140    0.00000000
                                                     2      364.6613336    -1517.52704460    0.00000000
                                                     2       55.7082801     -316.53065290    0.00000000
                                                     2       12.0464544      -91.88809410    0.00000000
                                                     2        3.5120610       -9.22417730    0.00000000
                                      S - G
                                                     0      188.0490770        3.15780140    0.00000000
                                                     1      340.4194712       26.83225770    0.00000000
                                                     2      128.2373673      800.42500070    0.00000000
                                                     2       33.8644961      369.40506830    0.00000000
                                                     2        4.7560005      242.41718990    0.00000000
                                                     2        3.9649974     -118.21732820    0.00000000
                                      P - G
                                                     0      289.7291139        2.15780140    0.00000000
                                                     1       87.4633789       61.96786100    0.00000000
                                                     2       30.4363766      269.05819860    0.00000000
                                                     2        4.0553412      231.16547930    0.00000000
                                                     2        3.5525341     -133.69526670    0.00000000
                                      D - G
                                                     0      136.4017106        3.15780140    0.00000000
                                                     1       95.0776925       45.93498030    0.00000000
                                                     2       49.2258410      359.03446680    0.00000000
                                                     2       15.0874145      176.47401190    0.00000000
                                                     2        4.0405764       54.51552860    0.00000000
                                      F - G
                                                     0      127.3507908        3.95461970    0.00000000
                                                     1       66.2364374       52.97736550    0.00000000
                                                     2       34.4299229      274.86433830    0.00000000
                                                     2       10.1995721      137.20473380    0.00000000
                                                     2        2.5409702       14.86333050    0.00000000
    2         17
                                   No pseudopotential on this center.
    3         17
                                   No pseudopotential on this center.
    4         17
                                   No pseudopotential on this center.
    5          7
                                   No pseudopotential on this center.
    6          7
                                   No pseudopotential on this center.
    7          7
                                   No pseudopotential on this center.
    8          6
                                   No pseudopotential on this center.
    9          6
                                   No pseudopotential on this center.
   10          6
                                   No pseudopotential on this center.
   11          6
                                   No pseudopotential on this center.
   12          6
                                   No pseudopotential on this center.
   13          6
                                   No pseudopotential on this center.
   14          6
                                   No pseudopotential on this center.
   15          1
                                   No pseudopotential on this center.
   16          1
                                   No pseudopotential on this center.
   17          1
                                   No pseudopotential on this center.
   18          1
                                   No pseudopotential on this center.
   19          1
                                   No pseudopotential on this center.
   20          1
                                   No pseudopotential on this center.
   21          1
                                   No pseudopotential on this center.
   22          1
                                   No pseudopotential on this center.
   23          1
                                   No pseudopotential on this center.
 ======================================================================================================
 There are   276 symmetry adapted cartesian basis functions of A   symmetry.
 There are   261 symmetry adapted basis functions of A   symmetry.
   261 basis functions,   542 primitive gaussians,   276 cartesian basis functions
    70 alpha electrons       70 beta electrons
       nuclear repulsion energy      1502.6319291261 Hartrees.
 NAtoms=   23 NActive=   23 NUniq=   23 SFac= 1.00D+00 NAtFMM=   60 NAOKFM=F Big=F
 Integral buffers will be    131072 words long.
 Raffenetti 2 integral format.
 Two-electron integral symmetry is turned on.
 Nuclear repulsion after empirical dispersion term =     1502.6050855005 Hartrees.
 One-electron integrals computed using PRISM.
   1 Symmetry operations used in ECPInt.
 ECPInt:  NShTT=    4095 NPrTT=   25070 LenC2=    3725 LenP2D=   14817.
 LDataN:  DoStor=T MaxTD1= 6 Len=  172
 NBasis=   261 RedAO= T EigKep=  7.51D-04  NBF=   261
 NBsUse=   261 1.00D-06 EigRej= -1.00D+00 NBFU=   261
 Defaulting to unpruned grid for atomic number  77.
 ExpMin= 2.90D-02 ExpMax= 2.52D+04 ExpMxC= 3.78D+03 IAcc=3 IRadAn=         5 AccDes= 0.00D+00
 Harris functional with IExCor= 1009 and IRadAn=       5 diagonalized for initial guess.
 HarFok:  IExCor= 1009 AccDes= 0.00D+00 IRadAn=         5 IDoV= 1 UseB2=F ITyADJ=14
 ICtDFT=  3500011 ScaDFX=  1.000000  1.000000  1.000000  1.000000
 Defaulting to unpruned grid for atomic number  77.
 FoFCou: FMM=F IPFlag=           0 FMFlag=      100000 FMFlg1=           0
         NFxFlg=           0 DoJE=T BraDBF=F KetDBF=T FulRan=T
         wScrn=  0.000000 ICntrl=       500 IOpCl=  0 I1Cent=   200000004 NGrid=           0
         NMat0=    1 NMatS0=      1 NMatT0=    0 NMatD0=    1 NMtDS0=    0 NMtDT0=    0
 Petite list used in FoFCou.
 Requested convergence on RMS density matrix=1.00D-08 within 128 cycles.
 Requested convergence on MAX density matrix=1.00D-06.
 Requested convergence on             energy=1.00D-06.
 No special actions if energy rises.
 Defaulting to unpruned grid for atomic number  77.
 Defaulting to unpruned grid for atomic number  77.
 Defaulting to unpruned grid for atomic number  77.
 Defaulting to unpruned grid for atomic number  77.
 Defaulting to unpruned grid for atomic number  77.
 Defaulting to unpruned grid for atomic number  77.
 Defaulting to unpruned grid for atomic number  77.
 Defaulting to unpruned grid for atomic number  77.
 EnCoef did     1 forward-backward iterations
 EnCoef did     2 forward-backward iterations
 EnCoef did     9 forward-backward iterations
 EnCoef did     4 forward-backward iterations
 EnCoef did     8 forward-backward iterations
 SCF Done:  E(RTPSS-TPSS) =  -1921.08490250     A.U. after   20 cycles
            NFock= 20  Conv=0.86D-08     -V/T= 2.0389

 **********************************************************************

            Population analysis using the SCF Density.

 **********************************************************************

 Orbital symmetries:
       Occupied  (A) (A) (A) (A) (A) (A) (A) (A) (A) (A) (A) (A)
                 (A) (A) (A) (A) (A) (A) (A) (A) (A) (A) (A) (A)
                 (A) (A) (A) (A) (A) (A) (A) (A) (A) (A) (A) (A)
                 (A) (A) (A) (A) (A) (A) (A) (A) (A) (A) (A) (A)
                 (A) (A) (A) (A) (A) (A) (A) (A) (A) (A) (A) (A)
                 (A) (A) (A) (A) (A) (A) (A) (A) (A) (A)
       Virtual   (A) (A) (A) (A) (A) (A) (A) (A) (A) (A) (A) (A)
                 (A) (A) (A) (A) (A) (A) (A) (A) (A) (A) (A) (A)
                 (A) (A) (A) (A) (A) (A) (A) (A) (A) (A) (A) (A)
                 (A) (A) (A) (A) (A) (A) (A) (A) (A) (A) (A) (A)
                 (A) (A) (A) (A) (A) (A) (A) (A) (A) (A) (A) (A)
                 (A) (A) (A) (A) (A) (A) (A) (A) (A) (A) (A) (A)
                 (A) (A) (A) (A) (A) (A) (A) (A) (A) (A) (A) (A)
                 (A) (A) (A) (A) (A) (A) (A) (A) (A) (A) (A) (A)
                 (A) (A) (A) (A) (A) (A) (A) (A) (A) (A) (A) (A)
                 (A) (A) (A) (A) (A) (A) (A) (A) (A) (A) (A) (A)
                 (A) (A) (A) (A) (A) (A) (A) (A) (A) (A) (A) (A)
                 (A) (A) (A) (A) (A) (A) (A) (A) (A) (A) (A) (A)
                 (A) (A) (A) (A) (A) (A) (A) (A) (A) (A) (A) (A)
                 (A) (A) (A) (A) (A) (A) (A) (A) (A) (A) (A) (A)
                 (A) (A) (A) (A) (A) (A) (A) (A) (A) (A) (A) (A)
                 (A) (A) (A) (A) (A) (A) (A) (A) (A) (A) (A)
 The electronic state is 1-A.
 Alpha  occ. eigenvalues -- -100.92642-100.92251-100.91448 -14.19386 -14.18538
 Alpha  occ. eigenvalues --  -14.16935 -10.08735 -10.06467 -10.04449 -10.03832
 Alpha  occ. eigenvalues --  -10.01708 -10.00050  -9.99529  -9.17756  -9.17352
 Alpha  occ. eigenvalues --   -9.16505  -6.95675  -6.95279  -6.94878  -6.94832
 Alpha  occ. eigenvalues --   -6.94466  -6.94432  -6.94379  -6.93661  -6.93613
 Alpha  occ. eigenvalues --   -3.61930  -2.06361  -2.05544  -2.04572  -0.96888
 Alpha  occ. eigenvalues --   -0.93454  -0.92605  -0.80162  -0.77334  -0.74257
 Alpha  occ. eigenvalues --   -0.69802  -0.68363  -0.67529  -0.65505  -0.64992
 Alpha  occ. eigenvalues --   -0.63203  -0.59656  -0.56017  -0.52859  -0.51776
 Alpha  occ. eigenvalues --   -0.48157  -0.47557  -0.44188  -0.44027  -0.41585
 Alpha  occ. eigenvalues --   -0.40746  -0.40481  -0.38819  -0.36962  -0.35339
 Alpha  occ. eigenvalues --   -0.34837  -0.31857  -0.31181  -0.29357  -0.28448
 Alpha  occ. eigenvalues --   -0.27162  -0.26902  -0.26485  -0.25442  -0.23098
 Alpha  occ. eigenvalues --   -0.22664  -0.20186  -0.19692  -0.19538  -0.18429
 Alpha virt. eigenvalues --   -0.14686  -0.08699  -0.06711  -0.05882  -0.03834
 Alpha virt. eigenvalues --   -0.02147   0.02783   0.03611   0.05405   0.08093
 Alpha virt. eigenvalues --    0.09075   0.09606   0.13369   0.14436   0.16303
 Alpha virt. eigenvalues --    0.17048   0.17244   0.19156   0.20416   0.22124
 Alpha virt. eigenvalues --    0.23020   0.24220   0.24549   0.24843   0.26585
 Alpha virt. eigenvalues --    0.27059   0.27309   0.28479   0.29561   0.37720
 Alpha virt. eigenvalues --    0.38604   0.39731   0.41348   0.42331   0.42653
 Alpha virt. eigenvalues --    0.43586   0.44093   0.45602   0.46787   0.47441
 Alpha virt. eigenvalues --    0.48042   0.48736   0.50105   0.51898   0.52317
 Alpha virt. eigenvalues --    0.53512   0.53825   0.55142   0.55721   0.56507
 Alpha virt. eigenvalues --    0.56935   0.57633   0.58161   0.58877   0.59784
 Alpha virt. eigenvalues --    0.60537   0.61544   0.62057   0.63650   0.64899
 Alpha virt. eigenvalues --    0.66492   0.69363   0.70617   0.72627   0.74656
 Alpha virt. eigenvalues --    0.76432   0.79886   0.80203   0.81471   0.81936
 Alpha virt. eigenvalues --    0.83928   0.84702   0.85903   0.87291   0.87727
 Alpha virt. eigenvalues --    0.89167   0.89811   0.90198   0.90455   0.91207
 Alpha virt. eigenvalues --    0.91934   0.93437   0.93949   0.94815   0.95063
 Alpha virt. eigenvalues --    0.95955   0.97491   0.97771   0.99196   0.99463
 Alpha virt. eigenvalues --    1.01130   1.03681   1.04695   1.05139   1.07617
 Alpha virt. eigenvalues --    1.08354   1.10646   1.12211   1.14914   1.15683
 Alpha virt. eigenvalues --    1.17105   1.17843   1.18490   1.20866   1.24175
 Alpha virt. eigenvalues --    1.24632   1.28030   1.29123   1.30090   1.31779
 Alpha virt. eigenvalues --    1.33533   1.35550   1.36519   1.37013   1.40997
 Alpha virt. eigenvalues --    1.42125   1.45300   1.50983   1.53452   1.60654
 Alpha virt. eigenvalues --    1.62536   1.64725   1.66752   1.71510   1.75800
 Alpha virt. eigenvalues --    1.77156   1.78162   1.78606   1.85810   1.90938
 Alpha virt. eigenvalues --    1.93494   1.95283   1.96439   1.97249   1.98160
 Alpha virt. eigenvalues --    2.00726   2.03121   2.05234   2.09099   2.12787
 Alpha virt. eigenvalues --    2.14978   2.19567   2.21228   2.22589   2.26165
 Alpha virt. eigenvalues --    2.28189   2.33470   2.40291   2.41692   2.43769
 Alpha virt. eigenvalues --    2.46236   2.47700   2.49140   2.50175   2.54184
 Alpha virt. eigenvalues --    2.55747   2.60912   2.62037   2.62859   2.64386
 Alpha virt. eigenvalues --    2.64429   2.68923   2.70342   2.70725   2.73506
 Alpha virt. eigenvalues --    2.75927   2.76739   2.79902   2.85570   2.94681
 Alpha virt. eigenvalues --    2.95424   3.02020   3.03920   3.11101   3.12580
 Alpha virt. eigenvalues --    3.13416   3.17506   3.44624   3.48585   3.50627
 Alpha virt. eigenvalues --    3.58149   3.72310   3.98460   4.06047   4.10825
 Alpha virt. eigenvalues --    4.25138   4.98280   4.99711   5.23586   6.31345
 Alpha virt. eigenvalues --    8.49397
          Condensed to atoms (all electrons):
               1          2          3          4          5          6
     1  Ir  16.407108   0.255164   0.249826   0.241916   0.078398  -0.008921
     2  Cl   0.255164  16.945303  -0.036035  -0.035634  -0.010268  -0.004847
     3  Cl   0.249826  -0.036035  17.008686  -0.003998  -0.016656  -0.031939
     4  Cl   0.241916  -0.035634  -0.003998  17.037056  -0.017838  -0.031525
     5  N    0.078398  -0.010268  -0.016656  -0.017838   6.841052  -0.009688
     6  N   -0.008921  -0.004847  -0.031939  -0.031525  -0.009688   6.823579
     7  N    0.108580  -0.002008  -0.018504  -0.027310  -0.004859  -0.045894
     8  C   -0.048046  -0.000364  -0.001008   0.000202   0.411603  -0.003340
     9  C    0.003541   0.000007  -0.000035   0.000044  -0.022657   0.000052
    10  C   -0.002957  -0.000020  -0.000095  -0.000072  -0.063220   0.000005
    11  C    0.002037  -0.000251   0.000085  -0.000434  -0.004404   0.000001
    12  C   -0.046331   0.000681  -0.000417  -0.002278   0.385335  -0.000127
    13  C   -0.089672   0.000165   0.002848   0.004866   0.000230   0.411911
    14  C   -0.081438  -0.000235   0.001747   0.003059   0.000286  -0.030981
    15  H   -0.012797  -0.000097   0.000543  -0.000149  -0.048661   0.001106
    16  H    0.000357   0.000001   0.000151   0.000002   0.017977  -0.000023
    17  H    0.000444   0.000000  -0.000000   0.000000  -0.000430   0.000000
    18  H    0.000445  -0.000024   0.000002   0.000081   0.011254   0.000000
    19  H   -0.009474   0.005317  -0.000091   0.000285  -0.041845   0.000001
    20  H   -0.041334  -0.000078  -0.001245  -0.001120  -0.000853   0.413744
    21  H    0.003406  -0.000003  -0.000125  -0.000241  -0.000010  -0.035348
    22  H    0.003076  -0.000053  -0.000424  -0.000602  -0.000003   0.009875
    23  H   -0.033141   0.002649  -0.001523  -0.002134  -0.000084   0.000910
               7          8          9         10         11         12
     1  Ir   0.108580  -0.048046   0.003541  -0.002957   0.002037  -0.046331
     2  Cl  -0.002008  -0.000364   0.000007  -0.000020  -0.000251   0.000681
     3  Cl  -0.018504  -0.001008  -0.000035  -0.000095   0.000085  -0.000417
     4  Cl  -0.027310   0.000202   0.000044  -0.000072  -0.000434  -0.002278
     5  N   -0.004859   0.411603  -0.022657  -0.063220  -0.004404   0.385335
     6  N   -0.045894  -0.003340   0.000052   0.000005   0.000001  -0.000127
     7  N    6.504059   0.000120   0.000001  -0.000000   0.000001   0.000079
     8  C    0.000120   4.658494   0.576692  -0.013793  -0.048307  -0.056020
     9  C    0.000001   0.576692   4.578866   0.565555  -0.018518  -0.038560
    10  C   -0.000000  -0.013793   0.565555   4.784910   0.480039  -0.010678
    11  C    0.000001  -0.048307  -0.018518   0.480039   4.691013   0.575889
    12  C    0.000079  -0.056020  -0.038560  -0.010678   0.575889   4.615988
    13  C   -0.027865  -0.000016   0.000002   0.000000  -0.000000   0.000017
    14  C    0.444300  -0.000032  -0.000000   0.000000  -0.000000  -0.000001
    15  H   -0.000064   0.398110  -0.037226   0.009212   0.001072   0.003542
    16  H    0.000000  -0.069524   0.264899  -0.096555   0.023337   0.000207
    17  H   -0.000000   0.011673  -0.058073   0.404891  -0.063512   0.008189
    18  H    0.000000   0.001046   0.008625  -0.068041   0.394558  -0.061351
    19  H   -0.000030   0.004720   0.000819   0.007604  -0.041912   0.407307
    20  H    0.000323   0.002553  -0.000037  -0.000005  -0.000015  -0.000026
    21  H    0.003367   0.000002  -0.000000  -0.000000   0.000000  -0.000000
    22  H   -0.051600   0.000000   0.000000  -0.000000   0.000000  -0.000000
    23  H    0.455119   0.000005  -0.000000  -0.000000   0.000000  -0.000002
              13         14         15         16         17         18
     1  Ir  -0.089672  -0.081438  -0.012797   0.000357   0.000444   0.000445
     2  Cl   0.000165  -0.000235  -0.000097   0.000001   0.000000  -0.000024
     3  Cl   0.002848   0.001747   0.000543   0.000151  -0.000000   0.000002
     4  Cl   0.004866   0.003059  -0.000149   0.000002   0.000000   0.000081
     5  N    0.000230   0.000286  -0.048661   0.017977  -0.000430   0.011254
     6  N    0.411911  -0.030981   0.001106  -0.000023   0.000000   0.000000
     7  N   -0.027865   0.444300  -0.000064   0.000000  -0.000000   0.000000
     8  C   -0.000016  -0.000032   0.398110  -0.069524   0.011673   0.001046
     9  C    0.000002  -0.000000  -0.037226   0.264899  -0.058073   0.008625
    10  C    0.000000   0.000000   0.009212  -0.096555   0.404891  -0.068041
    11  C   -0.000000  -0.000000   0.001072   0.023337  -0.063512   0.394558
    12  C    0.000017  -0.000001   0.003542   0.000207   0.008189  -0.061351
    13  C    4.861066   0.485185   0.000111  -0.000000  -0.000000   0.000000
    14  C    0.485185   4.555627   0.000017  -0.000000   0.000000  -0.000000
    15  H    0.000111   0.000017   0.595985  -0.026605  -0.000574   0.000071
    16  H   -0.000000  -0.000000  -0.026605   1.087719  -0.032570  -0.001496
    17  H   -0.000000   0.000000  -0.000574  -0.032570   0.654427  -0.008595
    18  H    0.000000  -0.000000   0.000071  -0.001496  -0.008595   0.733968
    19  H   -0.000000   0.000001  -0.000325  -0.000002  -0.000296  -0.015826
    20  H   -0.039895   0.006991   0.000866   0.000002  -0.000000  -0.000000
    21  H    0.381824  -0.037521  -0.000006   0.000000  -0.000000   0.000000
    22  H   -0.064091   0.400867  -0.000000   0.000000  -0.000000   0.000000
    23  H    0.008470  -0.033134   0.000000   0.000000   0.000000   0.000000
              19         20         21         22         23
     1  Ir  -0.009474  -0.041334   0.003406   0.003076  -0.033141
     2  Cl   0.005317  -0.000078  -0.000003  -0.000053   0.002649
     3  Cl  -0.000091  -0.001245  -0.000125  -0.000424  -0.001523
     4  Cl   0.000285  -0.001120  -0.000241  -0.000602  -0.002134
     5  N   -0.041845  -0.000853  -0.000010  -0.000003  -0.000084
     6  N    0.000001   0.413744  -0.035348   0.009875   0.000910
     7  N   -0.000030   0.000323   0.003367  -0.051600   0.455119
     8  C    0.004720   0.002553   0.000002   0.000000   0.000005
     9  C    0.000819  -0.000037  -0.000000   0.000000  -0.000000
    10  C    0.007604  -0.000005  -0.000000  -0.000000  -0.000000
    11  C   -0.041912  -0.000015   0.000000   0.000000   0.000000
    12  C    0.407307  -0.000026  -0.000000  -0.000000  -0.000002
    13  C   -0.000000  -0.039895   0.381824  -0.064091   0.008470
    14  C    0.000001   0.006991  -0.037521   0.400867  -0.033134
    15  H   -0.000325   0.000866  -0.000006  -0.000000   0.000000
    16  H   -0.000002   0.000002   0.000000   0.000000   0.000000
    17  H   -0.000296  -0.000000  -0.000000  -0.000000   0.000000
    18  H   -0.015826  -0.000000   0.000000   0.000000   0.000000
    19  H    0.531085   0.000006  -0.000000  -0.000000   0.000000
    20  H    0.000006   0.423046  -0.006281  -0.000393   0.000172
    21  H   -0.000000  -0.006281   0.526669  -0.000126  -0.000190
    22  H   -0.000000  -0.000393  -0.000126   0.679936  -0.013077
    23  H    0.000000   0.000172  -0.000190  -0.013077   0.466985
 Mulliken charges:
               1
     1  Ir   0.019812
     2  Cl  -0.119372
     3  Cl  -0.151794
     4  Cl  -0.164174
     5  N   -0.504656
     6  N   -0.458552
     7  N   -0.337812
     8  C    0.175228
     9  C    0.176004
    10  C    0.003217
    11  C    0.009322
    12  C    0.218557
    13  C    0.064847
    14  C    0.285262
    15  H    0.115869
    16  H   -0.167877
    17  H    0.084426
    18  H    0.005284
    19  H    0.152656
    20  H    0.243580
    21  H    0.164584
    22  H    0.036614
    23  H    0.148977
 Sum of Mulliken charges =  -0.00000
 Mulliken charges with hydrogens summed into heavy atoms:
               1
     1  Ir   0.019812
     2  Cl  -0.119372
     3  Cl  -0.151794
     4  Cl  -0.164174
     5  N   -0.504656
     6  N   -0.214972
     7  N   -0.188836
     8  C    0.291097
     9  C    0.008127
    10  C    0.087643
    11  C    0.014606
    12  C    0.371213
    13  C    0.229432
    14  C    0.321876
 Electronic spatial extent (au):  <R**2>=           3831.6397
 Charge=             -0.0000 electrons
 Dipole moment (field-independent basis, Debye):
    X=             -1.0812    Y=             -4.6309    Z=             -6.7865  Tot=              8.2868
 Quadrupole moment (field-independent basis, Debye-Ang):
   XX=            -78.7109   YY=           -123.1432   ZZ=           -124.4801
   XY=             -2.0744   XZ=             -3.5724   YZ=             11.3713
 Traceless Quadrupole moment (field-independent basis, Debye-Ang):
   XX=             30.0671   YY=            -14.3651   ZZ=            -15.7020
   XY=             -2.0744   XZ=             -3.5724   YZ=             11.3713
 Octapole moment (field-independent basis, Debye-Ang**2):
  XXX=             46.2758  YYY=             -9.2520  ZZZ=            -20.4618  XYY=             -1.4833
  XXY=             -9.1431  XXZ=            -22.2904  XZZ=             33.1063  YZZ=            -19.1502
  YYZ=            -14.5284  XYZ=             12.4072
 Hexadecapole moment (field-independent basis, Debye-Ang**3):
 XXXX=          -2198.2748 YYYY=          -1184.9501 ZZZZ=          -1010.1825 XXXY=             14.8337
 XXXZ=             10.2796 YYYX=              6.8391 YYYZ=             32.6915 ZZZX=            -34.1949
 ZZZY=             46.7645 XXYY=           -601.0035 XXZZ=           -619.9213 YYZZ=           -365.7777
 XXYZ=             37.3938 YYXZ=             -5.2954 ZZXY=            -22.1877
 N-N= 1.502605085500D+03 E-N=-7.518826848606D+03  KE= 1.849137236636D+03
   1 Symmetry operations used in ECPInt.
 ECPInt:  NShTT=    4095 NPrTT=   25070 LenC2=    3725 LenP2D=   14817.
 LDataN:  DoStor=T MaxTD1= 7 Len=  274
 Calling FoFJK, ICntrl=      2527 FMM=F ISym2X=0 I1Cent= 0 IOpClX= 0 NMat=1 NMatS=1 NMatT=0.
 Defaulting to unpruned grid for atomic number  77.
 Defaulting to unpruned grid for atomic number  77.
 Defaulting to unpruned grid for atomic number  77.
 Defaulting to unpruned grid for atomic number  77.
 Defaulting to unpruned grid for atomic number  77.
 Defaulting to unpruned grid for atomic number  77.
 Defaulting to unpruned grid for atomic number  77.
 Defaulting to unpruned grid for atomic number  77.
 ***** Axes restored to original set *****
 -------------------------------------------------------------------
 Center     Atomic                   Forces (Hartrees/Bohr)
 Number     Number              X              Y              Z
 -------------------------------------------------------------------
      1       77           0.010602040   -0.002800461   -0.001200656
      2       17          -0.000936723    0.002837595    0.000745189
      3       17           0.011194256   -0.007898228   -0.000191608
      4       17          -0.015991725    0.008586116    0.006634132
      5        7           0.000768908    0.008804633   -0.003904611
      6        7           0.157907334    0.192373942   -0.158001286
      7        7          -0.326809448   -0.579271074    0.456491144
      8        6          -0.016761600    0.152917774    0.141338664
      9        6          -0.268349270    1.038727664   -0.159776278
     10        6          -0.004554148    0.067935212   -0.192308518
     11        6           0.124429530   -0.346982045   -0.283703400
     12        6           0.038877762   -0.163355006    0.002596967
     13        6          -0.012638544    0.017039649   -0.060159144
     14        6           0.149616090   -0.076562967    0.543913445
     15        1           0.005883256   -0.152695030   -0.154977489
     16        1           0.281578318   -1.063140834    0.137326119
     17        1           0.011344978   -0.086239735    0.226629362
     18        1          -0.133865794    0.352736375    0.347121321
     19        1          -0.035103561    0.192868768   -0.060750342
     20        1          -0.164570156   -0.203452256    0.211843642
     21        1           0.008338975    0.000868669    0.004533608
     22        1          -0.160225468    0.062360090   -0.549119750
     23        1           0.339264989    0.584341148   -0.455080509
 -------------------------------------------------------------------
 Cartesian Forces:  Max     1.063140834 RMS     0.277691744

 GradGradGradGradGradGradGradGradGradGradGradGradGradGradGradGradGradGrad
 Berny optimization.
 FormGI is forming the generalized inverse of G from B-inverse, IUseBI=4.
 Internal  Forces:  Max     1.107944556 RMS     0.144587586
 Search for a local minimum.
 Step number   1 out of a maximum of  138
 All quantities printed in internal units (Hartrees-Bohrs-Radians)
 Mixed Optimization -- RFO/linear search
 Second derivative matrix not updated -- first step.
 ITU=  0
     Eigenvalues ---    0.00230   0.00710   0.00869   0.01118   0.01311
     Eigenvalues ---    0.01941   0.02122   0.02341   0.02380   0.02435
     Eigenvalues ---    0.02475   0.02552   0.02577   0.02621   0.02659
     Eigenvalues ---    0.02744   0.05009   0.06089   0.07061   0.08860
     Eigenvalues ---    0.11737   0.12616   0.14666   0.15198   0.15772
     Eigenvalues ---    0.15878   0.15939   0.15958   0.15978   0.15984
     Eigenvalues ---    0.15996   0.16056   0.16483   0.17142   0.17372
     Eigenvalues ---    0.17885   0.18491   0.19566   0.21318   0.21997
     Eigenvalues ---    0.22002   0.22034   0.23459   0.23505   0.24983
     Eigenvalues ---    0.33632   0.36492   0.44926   0.46990   0.50114
     Eigenvalues ---    0.52523   0.54785   0.56908   0.62077   0.67521
     Eigenvalues ---    0.69353   0.69922   0.72540   1.00541   1.16019
     Eigenvalues ---    1.25840   1.81990   2.22691
 RFO step:  Lambda=-1.02683696D+00 EMin= 2.30000000D-03
 Linear search not attempted -- first point.
 Maximum step size (   0.300) exceeded in Quadratic search.
    -- Step size scaled by   0.474
 Iteration  1 RMS(Cart)=  0.02848721 RMS(Int)=  0.00016436
 Iteration  2 RMS(Cart)=  0.00016265 RMS(Int)=  0.00000280
 Iteration  3 RMS(Cart)=  0.00000005 RMS(Int)=  0.00000280
 Variable       Old X    -DE/DX   Delta X   Delta X   Delta X     New X
                                 (Linear)    (Quad)   (Total)
    R1        4.47162   0.00188   0.00000   0.00074   0.00074   4.47236
    R2        4.45081   0.01343   0.00000   0.00528   0.00528   4.45609
    R3        4.42729   0.01896   0.00000   0.00742   0.00742   4.43471
    R4        3.88170  -0.00055   0.00000  -0.00022  -0.00022   3.88148
    R5        3.73356   0.00776   0.00000   0.00307   0.00307   3.73664
    R6        3.80244   0.00448   0.00000   0.00133   0.00133   3.80376
    R7        2.53854   0.01286   0.00000   0.00364   0.00364   2.54218
    R8        2.56944   0.00033   0.00000   0.00005   0.00005   2.56949
    R9        2.41886   0.05212   0.00000   0.01434   0.01434   2.43320
   R10        1.55123   0.33567   0.00000   0.07831   0.07831   1.62954
   R11        2.46204   0.01287   0.00000   0.00347   0.00346   2.46550
   R12        1.33601   0.81453   0.00000   0.13566   0.13566   1.47167
   R13        2.62064   0.02248   0.00000   0.00693   0.00693   2.62758
   R14        1.70926   0.21624   0.00000   0.05960   0.05960   1.76885
   R15        2.57998   0.03904   0.00000   0.01203   0.01203   2.59201
   R16        1.27199   1.10794   0.00000   0.16145   0.16145   1.43343
   R17        2.59645   0.02816   0.00000   0.00893   0.00893   2.60538
   R18        1.68908   0.23871   0.00000   0.06459   0.06459   1.75367
   R19        2.52568   0.05959   0.00000   0.01772   0.01772   2.54339
   R20        1.49533   0.51259   0.00000   0.11113   0.11113   1.60646
   R21        1.72142   0.20424   0.00000   0.05689   0.05689   1.77831
   R22        2.74524  -0.00707   0.00000  -0.00216  -0.00216   2.74307
   R23        2.07955  -0.00791   0.00000  -0.00275  -0.00275   2.07680
   R24        1.46478   0.57536   0.00000   0.11937   0.11937   1.58415
    A1        1.55743   0.00147   0.00000   0.00065   0.00065   1.55808
    A2        1.57191  -0.00091   0.00000  -0.00039  -0.00039   1.57152
    A3        1.57542  -0.00488   0.00000  -0.00198  -0.00198   1.57344
    A4        1.69547  -0.00486   0.00000  -0.00179  -0.00179   1.69368
    A5        1.58601  -0.00333   0.00000  -0.00144  -0.00144   1.58457
    A6        1.57704   0.00178   0.00000   0.00082   0.00082   1.57786
    A7        1.59168  -0.00045   0.00000  -0.00021  -0.00021   1.59148
    A8        1.58686  -0.00129   0.00000  -0.00053  -0.00053   1.58633
    A9        1.57395  -0.00193   0.00000  -0.00091  -0.00091   1.57304
   A10        1.52045   0.00482   0.00000   0.00208   0.00208   1.52253
   A11        1.65589   0.00516   0.00000   0.00233   0.00233   1.65821
   A12        1.35667   0.00444   0.00000   0.00138   0.00138   1.35805
   A13        2.11567  -0.00243   0.00000  -0.00075  -0.00075   2.11492
   A14        2.12930  -0.00834   0.00000  -0.00295  -0.00295   2.12636
   A15        2.03766   0.01081   0.00000   0.00372   0.00372   2.04138
   A16        2.06503  -0.01232   0.00000  -0.00426  -0.00425   2.06078
   A17        2.25588  -0.00917   0.00000  -0.00398  -0.00398   2.25191
   A18        1.90263   0.02219   0.00000   0.00862   0.00862   1.91125
   A19        2.02247   0.00710   0.00000   0.00207   0.00206   2.02453
   A20        2.22322  -0.01061   0.00000  -0.00385  -0.00385   2.21937
   A21        2.03334   0.00367   0.00000   0.00185   0.00185   2.03519
   A22        2.10767   0.00588   0.00000   0.00187   0.00186   2.10953
   A23        2.09953  -0.01193   0.00000  -0.00450  -0.00451   2.09502
   A24        2.02556   0.00923   0.00000   0.00403   0.00403   2.02959
   A25        2.11620  -0.00431   0.00000  -0.00173  -0.00173   2.11447
   A26        1.92432   0.02064   0.00000   0.00825   0.00825   1.93257
   A27        2.24242  -0.01631   0.00000  -0.00651  -0.00651   2.23590
   A28        2.04786  -0.00246   0.00000  -0.00061  -0.00061   2.04725
   A29        1.82640   0.03829   0.00000   0.01511   0.01511   1.84152
   A30        2.40807  -0.03579   0.00000  -0.01449  -0.01449   2.39358
   A31        2.09027  -0.00335   0.00000  -0.00085  -0.00085   2.08942
   A32        2.08417   0.00736   0.00000   0.00270   0.00270   2.08687
   A33        2.10673  -0.00389   0.00000  -0.00179  -0.00179   2.10494
   A34        2.16633  -0.00653   0.00000  -0.00237  -0.00237   2.16396
   A35        2.10964  -0.01360   0.00000  -0.00555  -0.00555   2.10409
   A36        2.00544   0.02019   0.00000   0.00795   0.00796   2.01340
   A37        1.98543   0.00290   0.00000   0.00166   0.00166   1.98709
   A38        2.16344  -0.00483   0.00000  -0.00218  -0.00218   2.16127
   A39        2.12299   0.00241   0.00000   0.00073   0.00073   2.12372
   A40        1.99267  -0.00216   0.00000  -0.00086  -0.00086   1.99181
   A41        2.14346  -0.00178   0.00000  -0.00071  -0.00070   2.14275
   A42        2.14302   0.00396   0.00000   0.00158   0.00158   2.14461
   A43        3.13448   0.00324   0.00000   0.00147   0.00147   3.13594
   A44        3.12935   0.00055   0.00000   0.00026   0.00026   3.12960
   A45        3.27089  -0.00973   0.00000  -0.00377  -0.00377   3.26712
   A46        3.23121   0.00035   0.00000   0.00038   0.00038   3.23159
   A47        3.11037   0.00456   0.00000   0.00195   0.00195   3.11232
   A48        3.17613  -0.00347   0.00000  -0.00152  -0.00152   3.17460
    D1       -2.29730  -0.00033   0.00000  -0.00015  -0.00015  -2.29745
    D2        0.88090  -0.00206   0.00000  -0.00091  -0.00091   0.87999
    D3       -0.73980   0.00105   0.00000   0.00046   0.00046  -0.73934
    D4        2.43840  -0.00068   0.00000  -0.00030  -0.00029   2.43811
    D5        2.41390   0.00067   0.00000   0.00027   0.00027   2.41417
    D6       -0.69109  -0.00106   0.00000  -0.00048  -0.00048  -0.69157
    D7        0.83857   0.00263   0.00000   0.00119   0.00119   0.83976
    D8       -2.26642   0.00090   0.00000   0.00044   0.00044  -2.26598
    D9       -1.65019   0.00149   0.00000   0.00067   0.00067  -1.64952
   D10        1.89872  -0.00556   0.00000  -0.00247  -0.00247   1.89625
   D11        1.45921   0.00608   0.00000   0.00263   0.00263   1.46184
   D12       -1.27506  -0.00097   0.00000  -0.00051  -0.00051  -1.27558
   D13        3.04639   0.00464   0.00000   0.00203   0.00203   3.04842
   D14        0.31212  -0.00241   0.00000  -0.00111  -0.00111   0.31101
   D15       -0.05938   0.00066   0.00000   0.00029   0.00029  -0.05909
   D16       -2.79365  -0.00639   0.00000  -0.00286  -0.00286  -2.79651
   D17       -3.12114   0.00259   0.00000   0.00109   0.00109  -3.12006
   D18        0.12249   0.00025   0.00000   0.00010   0.00011   0.12260
   D19        1.60210   0.00126   0.00000   0.00050   0.00050   1.60259
   D20       -1.43745  -0.00107   0.00000  -0.00049  -0.00049  -1.43794
   D21       -1.55553   0.00252   0.00000   0.00104   0.00104  -1.55449
   D22        1.68810   0.00019   0.00000   0.00006   0.00006   1.68816
   D23        0.02945  -0.00074   0.00000  -0.00042  -0.00042   0.02903
   D24       -3.01010  -0.00308   0.00000  -0.00140  -0.00140  -3.01150
   D25       -3.07835  -0.00297   0.00000  -0.00134  -0.00134  -3.07968
   D26       -0.28573   0.00945   0.00000   0.00412   0.00411  -0.28162
   D27        0.02848  -0.00170   0.00000  -0.00075  -0.00075   0.02773
   D28        2.82110   0.01072   0.00000   0.00471   0.00470   2.82579
   D29        3.07992   0.00155   0.00000   0.00067   0.00067   3.08059
   D30       -0.12880   0.00344   0.00000   0.00152   0.00152  -0.12728
   D31       -0.02661   0.00014   0.00000   0.00003   0.00003  -0.02659
   D32        3.04784   0.00203   0.00000   0.00088   0.00088   3.04872
   D33        0.07560   0.00069   0.00000   0.00025   0.00025   0.07586
   D34       -2.90671  -0.00291   0.00000  -0.00136  -0.00136  -2.90807
   D35        2.88675   0.00110   0.00000   0.00062   0.00062   2.88737
   D36       -0.09556  -0.00250   0.00000  -0.00100  -0.00099  -0.09655
   D37       -0.00033   0.00206   0.00000   0.00087   0.00087   0.00054
   D38        3.04717   0.00256   0.00000   0.00116   0.00116   3.04833
   D39        3.05069   0.00323   0.00000   0.00140   0.00140   3.05208
   D40       -0.18499   0.00373   0.00000   0.00168   0.00168  -0.18331
   D41       -0.01243   0.00228   0.00000   0.00100   0.00100  -0.01143
   D42       -3.13171   0.00162   0.00000   0.00070   0.00070  -3.13101
   D43       -2.81915  -0.00560   0.00000  -0.00262  -0.00263  -2.82178
   D44        0.34475  -0.00626   0.00000  -0.00292  -0.00293   0.34182
   D45       -0.00763  -0.00068   0.00000  -0.00031  -0.00031  -0.00794
   D46       -3.11293  -0.00043   0.00000  -0.00024  -0.00024  -3.11317
   D47        3.10722   0.00065   0.00000   0.00027   0.00026   3.10749
   D48        0.00193   0.00091   0.00000   0.00034   0.00033   0.00225
   D49        0.01026  -0.00108   0.00000  -0.00047  -0.00047   0.00978
   D50        3.08427   0.00079   0.00000   0.00038   0.00039   3.08465
   D51        3.09938   0.00117   0.00000   0.00048   0.00047   3.09986
   D52       -0.10979   0.00303   0.00000   0.00134   0.00133  -0.10846
   D53        0.00713   0.00129   0.00000   0.00060   0.00060   0.00773
   D54       -3.07094   0.00061   0.00000   0.00024   0.00024  -3.07070
   D55       -3.06599  -0.00105   0.00000  -0.00045  -0.00045  -3.06643
   D56        0.13913  -0.00172   0.00000  -0.00081  -0.00081   0.13832
   D57       -0.04790  -0.00196   0.00000  -0.00082  -0.00082  -0.04871
   D58       -3.09543  -0.00210   0.00000  -0.00096  -0.00096  -3.09639
   D59        2.93854   0.00081   0.00000   0.00046   0.00046   2.93900
   D60       -0.10899   0.00066   0.00000   0.00031   0.00032  -0.10867
         Item               Value     Threshold  Converged?
 Maximum Force            1.107945     0.000450     NO 
 RMS     Force            0.144588     0.000300     NO 
 Maximum Displacement     0.157035     0.001800     NO 
 RMS     Displacement     0.028500     0.001200     NO 
 Predicted change in Energy=-4.177005D-01
 GradGradGradGradGradGradGradGradGradGradGradGradGradGradGradGradGradGrad

                          Input orientation:                          
 ---------------------------------------------------------------------
 Center     Atomic      Atomic             Coordinates (Angstroms)
 Number     Number       Type             X           Y           Z
 ---------------------------------------------------------------------
      1         77           0        2.603120   -0.530494   14.700574
      2         17           0        3.946172    1.374681   15.110014
      3         17           0        4.554041   -1.765900   14.222946
      4         17           0        0.673220    0.738926   15.114437
      5          7           0        2.725629   -1.049877   16.684034
      6          7           0        1.481771   -2.075840   14.186401
      7          7           0        2.286890   -0.193039   12.741556
      8          6           0        3.039450   -2.303574   17.057532
      9          6           0        3.049163   -2.666775   18.399676
     10          6           0        2.752942   -1.757481   19.382944
     11          6           0        2.455869   -0.471048   18.985866
     12          6           0        2.455134   -0.160443   17.676290
     13          6           0        1.039577   -2.128345   12.978257
     14          6           0        1.528743   -1.059035   12.127170
     15          1           0        2.985951   -3.004010   16.438913
     16          1           0        3.248106   -3.394399   18.479467
     17          1           0        2.847877   -2.217598   20.183239
     18          1           0        2.227457    0.105326   19.567496
     19          1           0        2.303090    0.746667   17.477300
     20          1           0        1.011505   -2.596246   14.688015
     21          1           0        0.248274   -2.814616   12.645603
     22          1           0        1.288337   -0.966238   11.329462
     23          1           0        2.615385    0.358056   12.300109
 ---------------------------------------------------------------------
                    Distance matrix (angstroms):
                    1          2          3          4          5
     1  Ir   0.000000
     2  Cl   2.366670   0.000000
     3  Cl   2.358060   3.319585   0.000000
     4  Cl   2.346748   3.334130   4.704220   0.000000
     5  N    2.053992   3.137793   3.148449   3.142584   0.000000
     6  N    1.977345   4.339635   3.088081   3.072119   2.972870
     7  N    2.012866   3.289462   3.131834   3.017127   4.058300
     8  C    2.981518   4.259640   3.258520   4.316418   1.345266
     9  C    4.294881   5.287709   4.530045   5.294969   2.379593
    10  C    4.842782   5.430669   5.465309   5.364461   2.790263
    11  C    4.288233   4.544221   5.363242   4.430557   2.388774
    12  C    3.002287   3.341493   4.348389   3.247641   1.359718
    13  C    2.822086   5.026319   3.745941   3.594264   4.211728
    14  C    2.838318   4.545800   3.747581   3.590034   4.711436
    15  H    3.047403   4.675568   2.983678   4.594838   1.986578
    16  H    4.785185   5.880871   4.740828   5.919278   2.998892
    17  H    5.741589   6.312554   6.216117   6.258028   3.690928
    18  H    4.922634   4.943116   6.121984   4.758869   3.145953
    19  H    3.071054   2.949266   4.687280   2.870481   2.008825
    20  H    2.607821   4.955666   3.668151   3.379297   3.051814
    21  H    3.871100   6.107207   4.703982   4.347802   5.055741
    22  H    3.644574   5.180402   4.435824   4.196663   5.544749
    23  H    2.559669   3.271099   3.459318   3.440568   4.605782
                    6          7          8          9         10
     6  N    0.000000
     7  N    2.506139   0.000000
     8  C    3.274389   4.862957   0.000000
     9  C    4.534050   6.222118   1.390453   0.000000
    10  C    5.359225   6.839058   2.405794   1.371633   0.000000
    11  C    5.153551   6.252779   2.723451   2.348794   1.378707
    12  C    4.098233   4.937709   2.305926   2.675417   2.356245
    13  C    1.287596   2.314568   4.546502   5.806904   6.640270
    14  C    2.297070   1.304686   5.304676   6.651379   7.391397
    15  H    2.863192   4.696882   0.936036   1.990556   3.205534
    16  H    4.825864   6.640503   1.804256   0.758540   1.934156
    17  H    6.152106   7.732541   3.132752   1.850236   0.928004
    18  H    5.854035   6.832717   3.572401   3.118260   1.944285
    19  H    4.412611   4.828104   3.165817   3.613722   3.178773
    20  H    0.862317   3.345253   3.132543   4.234790   5.077252
    21  H    2.107454   3.322322   5.245659   6.401264   7.265167
    22  H    3.070949   1.894453   6.137234   7.481995   8.223728
    23  H    3.281315   0.778775   5.467831   6.822205   7.393306
                   11         12         13         14         15
    11  C    0.000000
    12  C    1.345906   0.000000
    13  C    6.390922   5.286583   0.000000
    14  C    6.946006   5.697228   1.451571   0.000000
    15  H    3.630958   3.146227   4.065871   4.949497   0.000000
    16  H    3.070841   3.425255   6.061668   6.982967   2.094037
    17  H    2.153557   3.266638   7.428976   8.245158   3.828509
    18  H    0.850102   1.923312   7.058217   7.563226   4.475636
    19  H    1.944721   0.941043   5.486671   5.699480   3.951218
    20  H    5.007412   4.116672   1.772849   3.031252   2.670272
    21  H    7.110887   6.101039   1.098993   2.233929   4.681874
    22  H    7.760725   6.503302   2.032461   0.838298   5.756813
    23  H    6.738858   5.403503   3.020803   1.794114   5.345139
                   16         17         18         19         20
    16  H    0.000000
    17  H    2.109000   0.000000
    18  H    3.804420   2.481942   0.000000
    19  H    4.364152   4.050402   2.187683   0.000000
    20  H    4.473762   5.806300   5.708447   4.541296   0.000000
    21  H    6.585523   7.995643   7.768901   6.344312   2.191268
    22  H    7.801233   9.076752   8.360347   6.462173   3.743453
    23  H    7.257116   8.296492   7.282120   5.201140   4.123401
                   21         22         23
    21  H    0.000000
    22  H    2.496089   0.000000
    23  H    3.973466   2.111153   0.000000
 Stoichiometry    C7H9Cl3IrN3
 Framework group  C1[X(C7H9Cl3IrN3)]
 Deg. of freedom    63
 Full point group                 C1      NOp   1
 Largest Abelian subgroup         C1      NOp   1
 Largest concise Abelian subgroup C1      NOp   1
                         Standard orientation:                         
 ---------------------------------------------------------------------
 Center     Atomic      Atomic             Coordinates (Angstroms)
 Number     Number       Type             X           Y           Z
 ---------------------------------------------------------------------
      1         77           0        0.487443    0.055678    0.092261
      2         17           0        0.170948    1.536291    1.911256
      3         17           0        0.546339   -1.748198    1.609829
      4         17           0        0.493134    1.875101   -1.389930
      5          7           0       -1.547188   -0.142112   -0.107834
      6          7           0        0.927150   -1.166193   -1.398907
      7          7           0        2.498070    0.141337    0.051372
      8          6           0       -2.121523   -1.353523   -0.219023
      9          6           0       -3.490661   -1.477476   -0.427484
     10          6           0       -4.298315   -0.372124   -0.512752
     11          6           0       -3.698527    0.861487   -0.373860
     12          6           0       -2.369569    0.938608   -0.175399
     13          6           0        2.163338   -1.288473   -1.737713
     14          6           0        3.081496   -0.560062   -0.881290
     15          1           0       -1.600399   -2.101337   -0.432018
     16          1           0       -3.691457   -2.207991   -0.465050
     17          1           0       -5.158498   -0.701423   -0.626062
     18          1           0       -4.164437    1.566913   -0.463169
     19          1           0       -2.033487    1.805385   -0.029421
     20          1           0        0.423579   -1.439709   -2.043264
     21          1           0        2.498035   -1.764245   -2.670132
     22          1           0        3.908289   -0.535288   -1.017465
     23          1           0        2.964429    0.494381    0.565531
 ---------------------------------------------------------------------
 Rotational constants (GHZ):           0.6097419           0.3378389           0.3228748
 Basis read from rwf:  (5D, 7F)
 Pseudo-potential data read from rwf file.
 There are   276 symmetry adapted cartesian basis functions of A   symmetry.
 There are   261 symmetry adapted basis functions of A   symmetry.
   261 basis functions,   542 primitive gaussians,   276 cartesian basis functions
    70 alpha electrons       70 beta electrons
       nuclear repulsion energy      1497.3103492393 Hartrees.
 NAtoms=   23 NActive=   23 NUniq=   23 SFac= 1.00D+00 NAtFMM=   60 NAOKFM=F Big=F
 Integral buffers will be    131072 words long.
 Raffenetti 2 integral format.
 Two-electron integral symmetry is turned on.
 Nuclear repulsion after empirical dispersion term =     1497.2835922052 Hartrees.
 One-electron integrals computed using PRISM.
   1 Symmetry operations used in ECPInt.
 ECPInt:  NShTT=    4095 NPrTT=   25070 LenC2=    3717 LenP2D=   14781.
 LDataN:  DoStor=T MaxTD1= 6 Len=  172
 NBasis=   261 RedAO= T EigKep=  7.77D-04  NBF=   261
 NBsUse=   261 1.00D-06 EigRej= -1.00D+00 NBFU=   261
 Defaulting to unpruned grid for atomic number  77.
 Initial guess from the checkpoint file:  "/scratch/gameelka/Gau-54351.chk"
 B after Tr=     0.000000   -0.000000    0.000000
         Rot=    0.999993   -0.003606    0.000495   -0.000009 Ang=  -0.42 deg.
 ExpMin= 2.90D-02 ExpMax= 2.52D+04 ExpMxC= 3.78D+03 IAcc=3 IRadAn=         5 AccDes= 0.00D+00
 Harris functional with IExCor= 1009 and IRadAn=       5 diagonalized for initial guess.
 HarFok:  IExCor= 1009 AccDes= 0.00D+00 IRadAn=         5 IDoV= 1 UseB2=F ITyADJ=14
 ICtDFT=  3500011 ScaDFX=  1.000000  1.000000  1.000000  1.000000
 Defaulting to unpruned grid for atomic number  77.
 FoFCou: FMM=F IPFlag=           0 FMFlag=      100000 FMFlg1=           0
         NFxFlg=           0 DoJE=T BraDBF=F KetDBF=T FulRan=T
         wScrn=  0.000000 ICntrl=       500 IOpCl=  0 I1Cent=   200000004 NGrid=           0
         NMat0=    1 NMatS0=      1 NMatT0=    0 NMatD0=    1 NMtDS0=    0 NMtDT0=    0
 Petite list used in FoFCou.
 Requested convergence on RMS density matrix=1.00D-08 within 128 cycles.
 Requested convergence on MAX density matrix=1.00D-06.
 Requested convergence on             energy=1.00D-06.
 No special actions if energy rises.
 Defaulting to unpruned grid for atomic number  77.
 Defaulting to unpruned grid for atomic number  77.
 Defaulting to unpruned grid for atomic number  77.
 Defaulting to unpruned grid for atomic number  77.
 Defaulting to unpruned grid for atomic number  77.
 Defaulting to unpruned grid for atomic number  77.
 Defaulting to unpruned grid for atomic number  77.
 Defaulting to unpruned grid for atomic number  77.
 EnCoef did     3 forward-backward iterations
 SCF Done:  E(RTPSS-TPSS) =  -1921.47279105     A.U. after   13 cycles
            NFock= 13  Conv=0.81D-08     -V/T= 2.0399
   1 Symmetry operations used in ECPInt.
 ECPInt:  NShTT=    4095 NPrTT=   25070 LenC2=    3717 LenP2D=   14781.
 LDataN:  DoStor=T MaxTD1= 7 Len=  274
 Calling FoFJK, ICntrl=      2527 FMM=F ISym2X=0 I1Cent= 0 IOpClX= 0 NMat=1 NMatS=1 NMatT=0.
 Defaulting to unpruned grid for atomic number  77.
 Defaulting to unpruned grid for atomic number  77.
 Defaulting to unpruned grid for atomic number  77.
 Defaulting to unpruned grid for atomic number  77.
 Defaulting to unpruned grid for atomic number  77.
 Defaulting to unpruned grid for atomic number  77.
 Defaulting to unpruned grid for atomic number  77.
 Defaulting to unpruned grid for atomic number  77.
 ***** Axes restored to original set *****
 -------------------------------------------------------------------
 Center     Atomic                   Forces (Hartrees/Bohr)
 Number     Number              X              Y              Z
 -------------------------------------------------------------------
      1       77           0.010038278   -0.003153976   -0.001536823
      2       17          -0.000928962    0.002793345    0.000460857
      3       17           0.010614775   -0.007388025   -0.000193358
      4       17          -0.015096293    0.008056000    0.006217921
      5        7           0.000539097    0.007755214   -0.002879339
      6        7           0.100296341    0.130199983   -0.105577473
      7        7          -0.186835259   -0.339367601    0.262142737
      8        6          -0.018944725    0.111987025    0.107759907
      9        6          -0.150026857    0.592139884   -0.111170832
     10        6           0.000730838    0.039765432   -0.143873915
     11        6           0.078746756   -0.229431323   -0.171535359
     12        6           0.030824531   -0.118451952    0.001714367
     13        6          -0.010623258    0.015155885   -0.049118513
     14        6           0.090607678   -0.052976770    0.348421473
     15        1           0.008360322   -0.111636543   -0.118610838
     16        1           0.161643352   -0.612764835    0.090913463
     17        1           0.005832246   -0.055257587    0.172076915
     18        1          -0.086753163    0.233437042    0.225595662
     19        1          -0.027015642    0.143740512   -0.049947458
     20        1          -0.108527841   -0.139256842    0.148503716
     21        1           0.007766474    0.000426502    0.004093493
     22        1          -0.099675845    0.040364211   -0.352930756
     23        1           0.198427157    0.343864418   -0.260525848
 -------------------------------------------------------------------
 Cartesian Forces:  Max     0.612764835 RMS     0.168076899

 GradGradGradGradGradGradGradGradGradGradGradGradGradGradGradGradGradGrad
 Berny optimization.
 Using GEDIIS/GDIIS optimizer.
 FormGI is forming the generalized inverse of G from B-inverse, IUseBI=4.
 Internal  Forces:  Max     0.639748709 RMS     0.088317819
 Search for a local minimum.
 Step number   2 out of a maximum of  138
 All quantities printed in internal units (Hartrees-Bohrs-Radians)
 Mixed Optimization -- RFO/linear search
 Update second derivatives using D2CorX and points    1    2
 DE= -3.88D-01 DEPred=-4.18D-01 R= 9.29D-01
 TightC=F SS=  1.41D+00  RLast= 3.00D-01 DXNew= 5.0454D-01 9.0056D-01
 Trust test= 9.29D-01 RLast= 3.00D-01 DXMaxT set to 5.05D-01
 ITU=  1  0
 Use linear search instead of GDIIS.
 Linear search step of   0.600 exceeds DXMaxT=   0.505 but not scaled.
 Quartic linear search produced a step of  2.00000.
 Iteration  1 RMS(Cart)=  0.04748007 RMS(Int)=  0.01295859
 Iteration  2 RMS(Cart)=  0.01269573 RMS(Int)=  0.00002906
 Iteration  3 RMS(Cart)=  0.00002599 RMS(Int)=  0.00001670
 Iteration  4 RMS(Cart)=  0.00000000 RMS(Int)=  0.00001670
 Variable       Old X    -DE/DX   Delta X   Delta X   Delta X     New X
                                 (Linear)    (Quad)   (Total)
    R1        4.47236   0.00180   0.00148   0.00000   0.00148   4.47384
    R2        4.45609   0.01269   0.01057   0.00000   0.01057   4.46665
    R3        4.43471   0.01787   0.01484   0.00000   0.01484   4.44955
    R4        3.88148  -0.00005  -0.00043   0.00000  -0.00043   3.88105
    R5        3.73664   0.00713   0.00615   0.00000   0.00617   3.74281
    R6        3.80376   0.00330   0.00265   0.00000   0.00265   3.80641
    R7        2.54218   0.01102   0.00728   0.00000   0.00727   2.54946
    R8        2.56949  -0.00029   0.00011   0.00000   0.00010   2.56959
[...]
    21  H    6.943033   8.480976   8.270873   6.445335   2.365592
    22  H    8.401994   9.662344   8.915047   6.619775   4.200407
    23  H    7.746943   8.587525   7.470767   5.034966   4.542078
                   21         22         23
    21  H    0.000000
    22  H    2.645407   0.000000
    23  H    4.214707   2.404434   0.000000
 Stoichiometry    C7H9Cl3IrN3
 Framework group  C1[X(C7H9Cl3IrN3)]
 Deg. of freedom    63
 Full point group                 C1      NOp   1
 Largest Abelian subgroup         C1      NOp   1
 Largest concise Abelian subgroup C1      NOp   1
                         Standard orientation:                         
 ---------------------------------------------------------------------
 Center     Atomic      Atomic             Coordinates (Angstroms)
 Number     Number       Type             X           Y           Z
 ---------------------------------------------------------------------
      1         77           0        0.490396    0.053473    0.074166
      2         17           0        0.157719    1.381992    2.011069
      3         17           0        0.495435   -1.940798    1.428310
      4         17           0        0.427623    2.034324   -1.305214
      5          7           0       -1.565227   -0.132108   -0.156906
      6          7           0        1.054759   -1.006235   -1.519225
      7          7           0        2.476299    0.156452    0.182533
      8          6           0       -2.126555   -1.343115   -0.405513
      9          6           0       -3.500419   -1.496951   -0.578952
     10          6           0       -4.331070   -0.373763   -0.483273
     11          6           0       -3.748917    0.868194   -0.210422
     12          6           0       -2.366111    0.960053   -0.051333
     13          6           0        2.349977   -1.133676   -1.724437
     14          6           0        3.166816   -0.470054   -0.739393
     15          1           0       -1.439845   -2.184637   -0.419526
     16          1           0       -3.903482   -2.486747   -0.774457
     17          1           0       -5.407414   -0.467046   -0.611719
     18          1           0       -4.350771    1.768245   -0.115892
     19          1           0       -1.858872    1.894307    0.163280
     20          1           0        0.430003   -1.430588   -2.208928
     21          1           0        2.754129   -1.680548   -2.572224
     22          1           0        4.253827   -0.473907   -0.757533
     23          1           0        2.965610    0.668828    0.920549
 ---------------------------------------------------------------------
 Rotational constants (GHZ):           0.5998892           0.3325587           0.3115691

 **********************************************************************

            Population analysis using the SCF Density.

 **********************************************************************

 Orbital symmetries:
       Occupied  (A) (A) (A) (A) (A) (A) (A) (A) (A) (A) (A) (A)
                 (A) (A) (A) (A) (A) (A) (A) (A) (A) (A) (A) (A)
                 (A) (A) (A) (A) (A) (A) (A) (A) (A) (A) (A) (A)
                 (A) (A) (A) (A) (A) (A) (A) (A) (A) (A) (A) (A)
                 (A) (A) (A) (A) (A) (A) (A) (A) (A) (A) (A) (A)
                 (A) (A) (A) (A) (A) (A) (A) (A) (A) (A)
       Virtual   (A) (A) (A) (A) (A) (A) (A) (A) (A) (A) (A) (A)
                 (A) (A) (A) (A) (A) (A) (A) (A) (A) (A) (A) (A)
                 (A) (A) (A) (A) (A) (A) (A) (A) (A) (A) (A) (A)
                 (A) (A) (A) (A) (A) (A) (A) (A) (A) (A) (A) (A)
                 (A) (A) (A) (A) (A) (A) (A) (A) (A) (A) (A) (A)
                 (A) (A) (A) (A) (A) (A) (A) (A) (A) (A) (A) (A)
                 (A) (A) (A) (A) (A) (A) (A) (A) (A) (A) (A) (A)
                 (A) (A) (A) (A) (A) (A) (A) (A) (A) (A) (A) (A)
                 (A) (A) (A) (A) (A) (A) (A) (A) (A) (A) (A) (A)
                 (A) (A) (A) (A) (A) (A) (A) (A) (A) (A) (A) (A)
                 (A) (A) (A) (A) (A) (A) (A) (A) (A) (A) (A) (A)
                 (A) (A) (A) (A) (A) (A) (A) (A) (A) (A) (A) (A)
                 (A) (A) (A) (A) (A) (A) (A) (A) (A) (A) (A) (A)
                 (A) (A) (A) (A) (A) (A) (A) (A) (A) (A) (A) (A)
                 (A) (A) (A) (A) (A) (A) (A) (A) (A) (A) (A) (A)
                 (A) (A) (A) (A) (A) (A) (A) (A) (A) (A) (A)
 The electronic state is 1-A.
 Alpha  occ. eigenvalues -- -100.92561-100.92559-100.91773 -14.20534 -14.19840
 Alpha  occ. eigenvalues --  -14.19197 -10.09044 -10.09021 -10.06394 -10.05832
 Alpha  occ. eigenvalues --  -10.04280 -10.03546 -10.03257  -9.17591  -9.17582
 Alpha  occ. eigenvalues --   -9.16820  -6.95532  -6.95525  -6.94712  -6.94708
 Alpha  occ. eigenvalues --   -6.94683  -6.94678  -6.94655  -6.93978  -6.93941
 Alpha  occ. eigenvalues --   -3.61838  -2.06296  -2.05337  -2.04426  -0.93028
 Alpha  occ. eigenvalues --   -0.91587  -0.87590  -0.77160  -0.73267  -0.69659
 Alpha  occ. eigenvalues --   -0.68728  -0.68106  -0.67658  -0.60961  -0.60536
 Alpha  occ. eigenvalues --   -0.57517  -0.56142  -0.51601  -0.48050  -0.46854
 Alpha  occ. eigenvalues --   -0.46135  -0.45288  -0.42222  -0.41231  -0.40717
 Alpha  occ. eigenvalues --   -0.39812  -0.39429  -0.37391  -0.34994  -0.34276
 Alpha  occ. eigenvalues --   -0.34055  -0.31103  -0.30427  -0.28522  -0.28443
 Alpha  occ. eigenvalues --   -0.26705  -0.26383  -0.26117  -0.25059  -0.22974
 Alpha  occ. eigenvalues --   -0.22591  -0.20537  -0.20110  -0.19866  -0.18557
 Alpha virt. eigenvalues --   -0.14409  -0.08277  -0.08028  -0.05860  -0.04031
 Alpha virt. eigenvalues --   -0.01754   0.01419   0.02259   0.05294   0.05711
 Alpha virt. eigenvalues --    0.07861   0.08037   0.09090   0.10496   0.11884
 Alpha virt. eigenvalues --    0.12818   0.14186   0.14959   0.15382   0.17146
 Alpha virt. eigenvalues --    0.19915   0.20188   0.23225   0.24307   0.24780
 Alpha virt. eigenvalues --    0.25504   0.26096   0.27363   0.27836   0.37691
 Alpha virt. eigenvalues --    0.37916   0.39582   0.41124   0.42040   0.42788
 Alpha virt. eigenvalues --    0.43733   0.45060   0.45193   0.46655   0.47304
 Alpha virt. eigenvalues --    0.47500   0.47885   0.49951   0.50499   0.51111
 Alpha virt. eigenvalues --    0.52457   0.53026   0.53308   0.54084   0.54767
 Alpha virt. eigenvalues --    0.55402   0.56227   0.57150   0.57457   0.57777
 Alpha virt. eigenvalues --    0.58469   0.60623   0.61900   0.63441   0.65073
 Alpha virt. eigenvalues --    0.67903   0.69103   0.71239   0.73473   0.74437
 Alpha virt. eigenvalues --    0.75550   0.76851   0.77182   0.77852   0.78933
 Alpha virt. eigenvalues --    0.80045   0.81398   0.81588   0.82419   0.83024
 Alpha virt. eigenvalues --    0.83067   0.85805   0.87373   0.87727   0.88005
 Alpha virt. eigenvalues --    0.89429   0.89702   0.90062   0.90856   0.91239
 Alpha virt. eigenvalues --    0.91574   0.91935   0.94015   0.94791   0.95882
 Alpha virt. eigenvalues --    0.98078   0.99126   0.99721   1.03204   1.04294
 Alpha virt. eigenvalues --    1.05989   1.06956   1.08466   1.09377   1.11773
 Alpha virt. eigenvalues --    1.12397   1.14286   1.15647   1.18335   1.23225
 Alpha virt. eigenvalues --    1.25762   1.26070   1.27448   1.29380   1.30656
 Alpha virt. eigenvalues --    1.31868   1.33454   1.34028   1.34679   1.35177
 Alpha virt. eigenvalues --    1.39647   1.43962   1.45302   1.48036   1.52823
 Alpha virt. eigenvalues --    1.61941   1.64119   1.67268   1.69632   1.73805
 Alpha virt. eigenvalues --    1.75118   1.76711   1.78512   1.80051   1.81607
 Alpha virt. eigenvalues --    1.86300   1.90126   1.91304   1.91951   1.93012
 Alpha virt. eigenvalues --    1.94438   1.94805   1.96675   1.97967   2.02289
 Alpha virt. eigenvalues --    2.04525   2.06773   2.07671   2.12202   2.16851
 Alpha virt. eigenvalues --    2.23806   2.24783   2.28840   2.30009   2.31031
 Alpha virt. eigenvalues --    2.34091   2.34481   2.35685   2.38930   2.39184
 Alpha virt. eigenvalues --    2.39590   2.39990   2.40663   2.41382   2.43375
 Alpha virt. eigenvalues --    2.45392   2.48626   2.50559   2.53393   2.55877
 Alpha virt. eigenvalues --    2.56993   2.59429   2.60470   2.62698   2.68535
 Alpha virt. eigenvalues --    2.68661   2.70613   2.73117   2.80955   2.84558
 Alpha virt. eigenvalues --    2.85289   2.91650   3.01609   3.12647   3.14681
 Alpha virt. eigenvalues --    3.19479   3.21799   3.22964   3.23732   3.29697
 Alpha virt. eigenvalues --    3.39710   3.41150   3.52334   3.75841   3.89719
 Alpha virt. eigenvalues --    8.49962
          Condensed to atoms (all electrons):
               1          2          3          4          5          6
     1  Ir  16.281984   0.251258   0.241410   0.243579   0.095027   0.016862
     2  Cl   0.251258  16.961660  -0.028385  -0.031265  -0.009241  -0.004535
     3  Cl   0.241410  -0.028385  17.021684  -0.002823  -0.015845  -0.025769
     4  Cl   0.243579  -0.031265  -0.002823  17.033082  -0.017188  -0.023981
     5  N    0.095027  -0.009241  -0.015845  -0.017188   6.779297  -0.006972
     6  N    0.016862  -0.004535  -0.025769  -0.023981  -0.006972   6.965831
     7  N    0.094970  -0.005551  -0.016744  -0.016053  -0.004611  -0.043851
     8  C   -0.044114  -0.000302  -0.012310  -0.000172   0.408504  -0.002503
     9  C    0.003369   0.000031   0.000008   0.000045  -0.023119   0.000048
    10  C   -0.002423  -0.000038  -0.000043  -0.000061  -0.043107   0.000001
    11  C    0.003303  -0.000061   0.000030  -0.000071  -0.021137   0.000001
    12  C   -0.046111  -0.001856  -0.000411  -0.005712   0.403661  -0.000123
    13  C   -0.082018   0.000148   0.002233   0.002175   0.000226   0.389282
    14  C   -0.081045   0.000047   0.001508   0.001641   0.000220  -0.025133
    15  H   -0.009286  -0.000036   0.011661  -0.000075  -0.041797  -0.000769
    16  H    0.000250   0.000000   0.000016   0.000000   0.004103  -0.000002
    17  H    0.000359   0.000000   0.000000   0.000000  -0.000085   0.000000
    18  H    0.000377   0.000015   0.000000   0.000028   0.004064   0.000000
    19  H   -0.008451   0.004715  -0.000033   0.002457  -0.036714   0.000012
    20  H   -0.031062   0.000006  -0.000609  -0.000628  -0.000381   0.346126
    21  H    0.003402  -0.000003  -0.000136  -0.000139  -0.000005  -0.035596
    22  H    0.003626  -0.000018  -0.000147  -0.000128  -0.000001   0.003636
    23  H   -0.022737   0.006759  -0.000684  -0.000928   0.000022   0.000457
               7          8          9         10         11         12
     1  Ir   0.094970  -0.044114   0.003369  -0.002423   0.003303  -0.046111
     2  Cl  -0.005551  -0.000302   0.000031  -0.000038  -0.000061  -0.001856
     3  Cl  -0.016744  -0.012310   0.000008  -0.000043   0.000030  -0.000411
     4  Cl  -0.016053  -0.000172   0.000045  -0.000061  -0.000071  -0.005712
     5  N   -0.004611   0.408504  -0.023119  -0.043107  -0.021137   0.403661
     6  N   -0.043851  -0.002503   0.000048   0.000001   0.000001  -0.000123
     7  N    6.839629   0.000111   0.000001  -0.000000   0.000001   0.000108
     8  C    0.000111   4.732374   0.545161  -0.028793  -0.033325  -0.055781
     9  C    0.000001   0.545161   4.849041   0.519751  -0.031770  -0.031774
    10  C   -0.000000  -0.028793   0.519751   4.822827   0.520130  -0.029167
    11  C    0.000001  -0.033325  -0.031770   0.520130   4.845911   0.543746
    12  C    0.000108  -0.055781  -0.031774  -0.029167   0.543746   4.697643
    13  C   -0.031482  -0.000016   0.000001   0.000000  -0.000000   0.000008
    14  C    0.397621  -0.000021  -0.000000   0.000000  -0.000000  -0.000002
    15  H   -0.000029   0.380227  -0.034052   0.003313   0.000534   0.003196
    16  H    0.000000  -0.039046   0.378444  -0.037043   0.004611   0.000088
    17  H   -0.000000   0.004604  -0.039896   0.374680  -0.038682   0.004506
    18  H    0.000000   0.000080   0.004690  -0.038197   0.380140  -0.037960
    19  H   -0.000007   0.003256   0.000483   0.003223  -0.030659   0.383964
    20  H    0.000248   0.003519  -0.000085  -0.000004  -0.000005  -0.000016
    21  H    0.003498   0.000001  -0.000000  -0.000000   0.000000  -0.000000
    22  H   -0.034722   0.000000   0.000000  -0.000000   0.000000   0.000000
    23  H    0.342091   0.000001  -0.000000   0.000000   0.000000  -0.000005
              13         14         15         16         17         18
     1  Ir  -0.082018  -0.081045  -0.009286   0.000250   0.000359   0.000377
     2  Cl   0.000148   0.000047  -0.000036   0.000000   0.000000   0.000015
     3  Cl   0.002233   0.001508   0.011661   0.000016   0.000000   0.000000
     4  Cl   0.002175   0.001641  -0.000075   0.000000   0.000000   0.000028
     5  N    0.000226   0.000220  -0.041797   0.004103  -0.000085   0.004064
     6  N    0.389282  -0.025133  -0.000769  -0.000002   0.000000   0.000000
     7  N   -0.031482   0.397621  -0.000029   0.000000  -0.000000   0.000000
     8  C   -0.000016  -0.000021   0.380227  -0.039046   0.004604   0.000080
     9  C    0.000001  -0.000000  -0.034052   0.378444  -0.039896   0.004690
    10  C    0.000000   0.000000   0.003313  -0.037043   0.374680  -0.038197
    11  C   -0.000000  -0.000000   0.000534   0.004611  -0.038682   0.380140
    12  C    0.000008  -0.000002   0.003196   0.000088   0.004506  -0.037960
    13  C    4.807673   0.469574   0.000060  -0.000000  -0.000000   0.000000
    14  C    0.469574   4.774679   0.000003  -0.000000   0.000000  -0.000000
    15  H    0.000060   0.000003   0.525055  -0.003174  -0.000149   0.000014
    16  H   -0.000000  -0.000000  -0.003174   0.560696  -0.005051  -0.000138
    17  H   -0.000000   0.000000  -0.000149  -0.005051   0.567842  -0.005063
    18  H    0.000000  -0.000000   0.000014  -0.000138  -0.005063   0.552758
    19  H    0.000000   0.000000  -0.000145   0.000013  -0.000136  -0.003059
    20  H   -0.037517   0.004937   0.000945   0.000002  -0.000000  -0.000000
    21  H    0.384270  -0.036216  -0.000005   0.000000  -0.000000   0.000000
    22  H   -0.038824   0.385038   0.000000   0.000000  -0.000000   0.000000
    23  H    0.004346  -0.032997   0.000001  -0.000000   0.000000  -0.000000
              19         20         21         22         23
     1  Ir  -0.008451  -0.031062   0.003402   0.003626  -0.022737
     2  Cl   0.004715   0.000006  -0.000003  -0.000018   0.006759
     3  Cl  -0.000033  -0.000609  -0.000136  -0.000147  -0.000684
     4  Cl   0.002457  -0.000628  -0.000139  -0.000128  -0.000928
     5  N   -0.036714  -0.000381  -0.000005  -0.000001   0.000022
     6  N    0.000012   0.346126  -0.035596   0.003636   0.000457
     7  N   -0.000007   0.000248   0.003498  -0.034722   0.342091
     8  C    0.003256   0.003519   0.000001   0.000000   0.000001
     9  C    0.000483  -0.000085  -0.000000   0.000000  -0.000000
    10  C    0.003223  -0.000004  -0.000000  -0.000000   0.000000
    11  C   -0.030659  -0.000005   0.000000   0.000000   0.000000
    12  C    0.383964  -0.000016  -0.000000   0.000000  -0.000005
    13  C    0.000000  -0.037517   0.384270  -0.038824   0.004346
    14  C    0.000000   0.004937  -0.036216   0.385038  -0.032997
    15  H   -0.000145   0.000945  -0.000005   0.000000   0.000001
    16  H    0.000013   0.000002   0.000000   0.000000  -0.000000
    17  H   -0.000136  -0.000000  -0.000000  -0.000000   0.000000
    18  H   -0.003059  -0.000000   0.000000   0.000000  -0.000000
    19  H    0.481391   0.000002  -0.000000   0.000000  -0.000001
    20  H    0.000002   0.419774  -0.005252  -0.000131   0.000061
    21  H   -0.000000  -0.005252   0.520512   0.000610  -0.000118
    22  H    0.000000  -0.000131   0.000610   0.517692  -0.004980
    23  H   -0.000001   0.000061  -0.000118  -0.004980   0.387041
 Mulliken charges:
               1
     1  Ir   0.087472
     2  Cl  -0.143350
     3  Cl  -0.174611
     4  Cl  -0.183785
     5  N   -0.474918
     6  N   -0.553024
     7  N   -0.525224
     8  C    0.138542
     9  C   -0.140376
    10  C   -0.065048
    11  C   -0.142696
    12  C    0.171998
    13  C    0.129860
    14  C    0.140144
    15  H    0.164509
    16  H    0.136228
    17  H    0.137071
    18  H    0.142251
    19  H    0.199689
    20  H    0.300069
    21  H    0.165177
    22  H    0.168348
    23  H    0.321672
 Sum of Mulliken charges =  -0.00000
 Mulliken charges with hydrogens summed into heavy atoms:
               1
     1  Ir   0.087472
     2  Cl  -0.143350
     3  Cl  -0.174611
     4  Cl  -0.183785
     5  N   -0.474918
     6  N   -0.252954
     7  N   -0.203552
     8  C    0.303051
     9  C   -0.004149
    10  C    0.072023
    11  C   -0.000445
    12  C    0.371687
    13  C    0.295037
    14  C    0.308493
 Electronic spatial extent (au):  <R**2>=           3952.5162
 Charge=              0.0000 electrons
 Dipole moment (field-independent basis, Debye):
    X=             -0.3321    Y=             -4.0026    Z=             -6.1487  Tot=              7.3442
 Quadrupole moment (field-independent basis, Debye-Ang):
   XX=            -76.4836   YY=           -125.6421   ZZ=           -125.7731
   XY=             -1.9853   XZ=             -2.2443   YZ=             12.9765
 Traceless Quadrupole moment (field-independent basis, Debye-Ang):
   XX=             32.8160   YY=            -16.3425   ZZ=            -16.4735
   XY=             -1.9853   XZ=             -2.2443   YZ=             12.9765
 Octapole moment (field-independent basis, Debye-Ang**2):
  XXX=             54.6370  YYY=             -6.2881  ZZZ=            -19.4622  XYY=             -1.5875
  XXY=             -4.8858  XXZ=            -17.5083  XZZ=             39.7333  YZZ=            -19.0865
  YYZ=            -12.5856  XYZ=             10.9457
 Hexadecapole moment (field-independent basis, Debye-Ang**3):
 XXXX=          -2257.1907 YYYY=          -1265.0201 ZZZZ=           -996.9326 XXXY=             -6.9765
 XXXZ=             19.9882 YYYX=              7.3520 YYYZ=             39.2731 ZZZX=            -34.2583
 ZZZY=             43.2560 XXYY=           -641.3300 XXZZ=           -658.9212 YYZZ=           -377.6987
 XXYZ=             55.9825 YYXZ=             -3.6055 ZZXY=            -20.0480
 N-N= 1.471689525821D+03 E-N=-7.455173456495D+03  KE= 1.843758472648D+03
 Unable to Open any file for archive entry.
 1\1\GINC-CEDAR1\FOpt\RTPSSTPSS\Gen\C7H9Cl3Ir1N3\GAMEELKA\25-Mar-2024\0
 \\#n TPSSTPSS/Gen Pseudo=Read EmpiricalDispersion=GD3 opt\\Title\\0,1\
 Ir,2.5005919432,-0.5654291945,14.7132808475\Cl,3.8557608475,1.34451019
 34,15.0912771903\Cl,4.465697899,-1.883350177,14.252532442\Cl,0.5254347
 278,0.7235387378,15.2306936534\N,2.6526750392,-1.0759890858,16.7206723
 696\N,1.3316389522,-2.0704014965,14.1225290787\N,2.2752679557,-0.18560
 60357,12.7713432643\C,2.9408906501,-2.350302799,17.0901158396\C,3.0357
 481787,-2.7260629097,18.4284185446\C,2.840160196,-1.7614062636,19.4243
 457983\C,2.5601272713,-0.4469686722,19.0375100958\C,2.473055541,-0.132
 4049234,17.6812767149\C,1.0004625073,-2.1054885763,12.8477614594\C,1.5
 509209214,-1.0238477598,12.0699567361\H,3.1312439654,-3.0433404215,16.
 2756277118\H,3.270317307,-3.7578391108,18.6749827011\H,2.9115226914,-2
 .0279879579,20.4767521445\H,2.4106019607,0.3406395727,19.7713839772\H,
 2.2609734164,0.868439277,17.3213982626\H,0.9393809194,-2.7972594077,14
 .7257689685\H,0.3573286359,-2.8778848393,12.4343194119\H,1.3778779552,
 -0.9004706398,11.0037625859\H,2.7000205182,0.6236124896,12.3115902021\
 \Version=ES64L-G16RevC.01\State=1-A\HF=-1921.9481059\RMSD=8.495e-09\RM
 SF=5.962e-05\Dipole=-1.6436906,-2.3750706,0.0782992\Quadrupole=-17.572
 4627,-5.4098821,22.9823448,6.3253955,8.0207634,-2.6493476\PG=C01 [X(C7
 H9Cl3Ir1N3)]\\@
 The archive entry for this job was punched.


 IF IT'S NOT TRUE, IT'S WELL INVENTED -- DANTE
 Job cpu time:       0 days  1 hours 52 minutes 36.7 seconds.
 Elapsed time:       0 days  0 hours 14 minutes 27.8 seconds.
 File lengths (MBytes):  RWF=     47 Int=      0 D2E=      0 Chk=      6 Scr=      1
 Normal termination of Gaussian 16 at Mon Mar 25 09:04:41 2024.
