 Entering Gaussian System, Link 0=g16
 Input=mo-full.inp
 Output=mo-full.log
 Initial command:
 /opt/software/gaussian/g16.c01/l1.exe "/scratch/gameelka/Gau-63781.inp" -scrdir="/scratch/gameelka/"
 Entering Link 1 = /opt/software/gaussian/g16.c01/l1.exe PID=     63782.
  
 Copyright (c) 1988-2019, Gaussian, Inc.  All Rights Reserved.
  
 This is part of the Gaussian(R) 16 program.  It is based on
 the Gaussian(R) 09 system (copyright 2009, Gaussian, Inc.),
 the Gaussian(R) 03 system (copyright 2003, Gaussian, Inc.),
 the Gaussian(R) 98 system (copyright 1998, Gaussian, Inc.),
 the Gaussian(R) 94 system (copyright 1995, Gaussian, Inc.),
 the Gaussian 92(TM) system (copyright 1992, Gaussian, Inc.),
 the Gaussian 90(TM) system (copyright 1990, Gaussian, Inc.),
 the Gaussian 88(TM) system (copyright 1988, Gaussian, Inc.),
 the Gaussian 86(TM) system (copyright 1986, Carnegie Mellon
 University), and the Gaussian 82(TM) system (copyright 1983,
 Carnegie Mellon University). Gaussian is a federally registered
 trademark of Gaussian, Inc.
  
 This software contains proprietary and confidential information,
 including trade secrets, belonging to Gaussian, Inc.
  
 This software is provided under written license and may be
 used, copied, transmitted, or stored only in accord with that
 written license.
  
 The following legend is applicable only to US Government
 contracts under FAR:
  
                    RESTRICTED RIGHTS LEGEND
  
 Use, reproduction and disclosure by the US Government is
 subject to restrictions as set forth in subparagraphs (a)
 and (c) of the Commercial Computer Software - Restricted
 Rights clause in FAR 52.227-19.
  
 Gaussian, Inc.
 340 Quinnipiac St., Bldg. 40, Wallingford CT 06492
  
  
 ---------------------------------------------------------------
 Warning -- This program may not be used in any manner that
 competes with the business of Gaussian, Inc. or will provide
 assistance to any competitor of Gaussian, Inc.  The licensee
 of this program is prohibited from giving any competitor of
 Gaussian, Inc. access to this program.  By using this program,
 the user acknowledges that Gaussian, Inc. is engaged in the
 business of creating and licensing software in the field of
 computational chemistry and represents and warrants to the
 licensee that it is not a competitor of Gaussian, Inc. and that
 it will not use this program in any manner prohibited above.
 ---------------------------------------------------------------
  

 Cite this work as:
 Gaussian 16, Revision C.01,
 M. J. Frisch, G. W. Trucks, H. B. Schlegel, G. E. Scuseria, 
 M. A. Robb, J. R. Cheeseman, G. Scalmani, V. Barone, 
 G. A. Petersson, H. Nakatsuji, X. Li, M. Caricato, A. V. Marenich, 
 J. Bloino, B. G. Janesko, R. Gomperts, B. Mennucci, H. P. Hratchian, 
 J. V. Ortiz, A. F. Izmaylov, J. L. Sonnenberg, D. Williams-Young, 
 F. Ding, F. Lipparini, F. Egidi, J. Goings, B. Peng, A. Petrone, 
 T. Henderson, D. Ranasinghe, V. G. Zakrzewski, J. Gao, N. Rega, 
 G. Zheng, W. Liang, M. Hada, M. Ehara, K. Toyota, R. Fukuda, 
 J. Hasegawa, M. Ishida, T. Nakajima, Y. Honda, O. Kitao, H. Nakai, 
 T. Vreven, K. Throssell, J. A. Montgomery, Jr., J. E. Peralta, 
 F. Ogliaro, M. J. Bearpark, J. J. Heyd, E. N. Brothers, K. N. Kudin, 
 V. N. Staroverov, T. A. Keith, R. Kobayashi, J. Normand, 
 K. Raghavachari, A. P. Rendell, J. C. Burant, S. S. Iyengar, 
 J. Tomasi, M. Cossi, J. M. Millam, M. Klene, C. Adamo, R. Cammi, 
 J. W. Ochterski, R. L. Martin, K. Morokuma, O. Farkas, 
 J. B. Foresman, and D. J. Fox, Gaussian, Inc., Wallingford CT, 2019.
 
 ******************************************
 Gaussian 16:  ES64L-G16RevC.01  3-Jul-2019
                25-Mar-2024 
 ******************************************
 %NProcShared=8
 Will use up to    8 processors via shared memory.
 -------------------------------------------------------
 #n TPSSTPSS/Gen Pseudo=Read EmpiricalDispersion=GD3 opt
 -------------------------------------------------------
 1/18=20,19=15,26=3,38=1/1,3;
 2/9=110,12=2,17=6,18=5,40=1/2;
 3/5=7,11=2,16=1,17=8,25=1,30=1,71=1,74=2523,124=31/1,2,3;
 4//1;
 5/5=2,38=5/2;
 6/7=2,8=2,9=2,10=2,28=1/1;
 7//1,2,3,16;
 1/18=20,19=15,26=3/3(2);
 2/9=110/2;
 99//99;
 2/9=110/2;
 3/5=7,6=1,11=2,16=1,17=8,25=1,30=1,71=1,74=2523,82=7,124=31/1,2,3;
 4/5=5,16=3,69=1/1;
 5/5=2,38=5/2;
 7//1,2,3,16;
 1/18=20,19=15,26=3/3(-5);
 2/9=110/2;
 6/7=2,8=2,9=2,10=2,19=2,28=1/1;
 99/9=1/99;
 -----
 Title
 -----
 Symbolic Z-matrix:
 Charge =  0 Multiplicity = 1
 Mo                    0.3378   -1.8243    3.0353 
 O                     2.2308   -2.8209    0.7799 
 O                     2.2086   -3.37      4.975 
 O                     2.1723    0.6637    3.3034 
 C                     1.5263   -2.4531    1.6111 
 C                     1.5194   -2.7932    4.2662 
 C                     1.5204   -0.2756    3.209 
 C                    -1.5689   -1.404     1.6421 
 C                    -1.5968   -2.7527    2.059 
 H                    -1.4953   -3.4657    1.38 
 C                    -1.626    -3.1078    3.4136 
 H                    -1.5555   -4.0587    3.6812 
 C                    -1.5855   -2.092     4.3911 
 H                    -1.4878   -2.3286    5.3465 
 C                    -1.5466   -0.7611    3.9975 
 H                    -1.4028   -0.0639    4.6853 
 C                    -1.5286   -0.3878    2.6296 
 C                    -1.5231    1.0718    2.2724 
 H                    -2.4358    1.3833    2.1696 
 H                    -1.0423    1.199     1.4398 
 H                    -1.0867    1.5756    2.9779 
 C                    -1.6541   -1.0944    0.1736 
 H                    -2.5829   -0.9722   -0.0774 
 H                    -1.2751   -1.8292   -0.334 
 H                    -1.1588   -0.2818   -0.0144 
 

 GradGradGradGradGradGradGradGradGradGradGradGradGradGradGradGradGradGrad
 Berny optimization.
 Initialization pass.
                           ----------------------------
                           !    Initial Parameters    !
                           ! (Angstroms and Degrees)  !
 --------------------------                            --------------------------
 ! Name  Definition              Value          Derivative Info.                !
 --------------------------------------------------------------------------------
 ! R1    R(1,5)                  1.9586         estimate D2E/DX2                !
 ! R2    R(1,6)                  1.9622         estimate D2E/DX2                !
 ! R3    R(1,7)                  1.9563         estimate D2E/DX2                !
 ! R4    R(1,8)                  2.3986         estimate D2E/DX2                !
 ! R5    R(1,9)                  2.3575         estimate D2E/DX2                !
 ! R6    R(1,11)                 2.3763         estimate D2E/DX2                !
 ! R7    R(1,13)                 2.3683         estimate D2E/DX2                !
 ! R8    R(1,15)                 2.3679         estimate D2E/DX2                !
 ! R9    R(1,17)                 2.3899         estimate D2E/DX2                !
 ! R10   R(2,5)                  1.15           estimate D2E/DX2                !
 ! R11   R(3,6)                  1.1446         estimate D2E/DX2                !
 ! R12   R(4,7)                  1.1472         estimate D2E/DX2                !
 ! R13   R(8,9)                  1.4119         estimate D2E/DX2                !
 ! R14   R(8,17)                 1.4175         estimate D2E/DX2                !
 ! R15   R(8,22)                 1.5032         estimate D2E/DX2                !
 ! R16   R(9,10)                 0.9898         estimate D2E/DX2                !
 ! R17   R(9,11)                 1.4007         estimate D2E/DX2                !
 ! R18   R(11,12)                0.9903         estimate D2E/DX2                !
 ! R19   R(11,13)                1.4103         estimate D2E/DX2                !
 ! R20   R(13,14)                0.9891         estimate D2E/DX2                !
 ! R21   R(13,15)                1.3884         estimate D2E/DX2                !
 ! R22   R(15,16)                0.9899         estimate D2E/DX2                !
 ! R23   R(15,17)                1.418          estimate D2E/DX2                !
 ! R24   R(17,18)                1.5027         estimate D2E/DX2                !
 ! R25   R(18,19)                0.9699         estimate D2E/DX2                !
 ! R26   R(18,20)                0.9698         estimate D2E/DX2                !
 ! R27   R(18,21)                0.9706         estimate D2E/DX2                !
 ! R28   R(22,23)                0.9698         estimate D2E/DX2                !
 ! R29   R(22,24)                0.9702         estimate D2E/DX2                !
 ! R30   R(22,25)                0.97           estimate D2E/DX2                !
 ! A1    A(5,1,6)               86.1129         estimate D2E/DX2                !
 ! A2    A(5,1,7)               87.2429         estimate D2E/DX2                !
 ! A3    A(5,1,8)               96.6765         estimate D2E/DX2                !
 ! A4    A(5,1,9)               94.0367         estimate D2E/DX2                !
 ! A5    A(5,1,11)             116.3475         estimate D2E/DX2                !
 ! A6    A(5,1,13)             150.7806         estimate D2E/DX2                !
 ! A7    A(5,1,15)             157.2943         estimate D2E/DX2                !
 ! A8    A(5,1,17)             122.9164         estimate D2E/DX2                !
 ! A9    A(6,1,7)               88.3485         estimate D2E/DX2                !
 ! A10   A(6,1,8)              158.3733         estimate D2E/DX2                !
 ! A11   A(6,1,9)              124.0213         estimate D2E/DX2                !
 ! A12   A(6,1,11)              97.532          estimate D2E/DX2                !
 ! A13   A(6,1,13)              94.2495         estimate D2E/DX2                !
 ! A14   A(6,1,15)             116.489          estimate D2E/DX2                !
 ! A15   A(6,1,17)             150.878          estimate D2E/DX2                !
 ! A16   A(7,1,8)              113.1657         estimate D2E/DX2                !
 ! A17   A(7,1,9)              147.628          estimate D2E/DX2                !
 ! A18   A(7,1,11)             155.9235         estimate D2E/DX2                !
 ! A19   A(7,1,13)             121.9761         estimate D2E/DX2                !
 ! A20   A(7,1,15)              95.137          estimate D2E/DX2                !
 ! A21   A(7,1,17)              90.6491         estimate D2E/DX2                !
 ! A22   A(8,1,11)              61.9776         estimate D2E/DX2                !
 ! A23   A(8,1,13)              72.9484         estimate D2E/DX2                !
 ! A24   A(8,1,15)              61.624          estimate D2E/DX2                !
 ! A25   A(9,1,13)              61.7151         estimate D2E/DX2                !
 ! A26   A(9,1,15)              72.0645         estimate D2E/DX2                !
 ! A27   A(9,1,17)              61.6758         estimate D2E/DX2                !
 ! A28   A(11,1,15)             61.3264         estimate D2E/DX2                !
 ! A29   A(11,1,17)             72.92           estimate D2E/DX2                !
 ! A30   A(13,1,17)             62.0249         estimate D2E/DX2                !
 ! A31   A(1,8,22)             130.4349         estimate D2E/DX2                !
 ! A32   A(9,8,17)             118.6615         estimate D2E/DX2                !
 ! A33   A(9,8,22)             118.9514         estimate D2E/DX2                !
 ! A34   A(17,8,22)            122.3106         estimate D2E/DX2                !
 ! A35   A(1,9,10)             118.9218         estimate D2E/DX2                !
 ! A36   A(8,9,10)             118.9144         estimate D2E/DX2                !
 ! A37   A(8,9,11)             121.8793         estimate D2E/DX2                !
 ! A38   A(10,9,11)            118.8779         estimate D2E/DX2                !
 ! A39   A(1,11,12)            120.1847         estimate D2E/DX2                !
 ! A40   A(9,11,12)            120.2157         estimate D2E/DX2                !
 ! A41   A(9,11,13)            119.1506         estimate D2E/DX2                !
 ! A42   A(12,11,13)           120.1487         estimate D2E/DX2                !
 ! A43   A(1,13,14)            119.9862         estimate D2E/DX2                !
 ! A44   A(11,13,14)           120.0024         estimate D2E/DX2                !
 ! A45   A(11,13,15)           119.6525         estimate D2E/DX2                !
 ! A46   A(14,13,15)           120.0237         estimate D2E/DX2                !
 ! A47   A(1,15,16)            118.8803         estimate D2E/DX2                !
 ! A48   A(13,15,16)           118.8323         estimate D2E/DX2                !
 ! A49   A(13,15,17)           121.7466         estimate D2E/DX2                !
 ! A50   A(16,15,17)           118.8823         estimate D2E/DX2                !
 ! A51   A(1,17,18)            128.4137         estimate D2E/DX2                !
 ! A52   A(8,17,15)            118.8761         estimate D2E/DX2                !
 ! A53   A(8,17,18)            122.0615         estimate D2E/DX2                !
 ! A54   A(15,17,18)           119.016          estimate D2E/DX2                !
 ! A55   A(17,18,19)           109.495          estimate D2E/DX2                !
 ! A56   A(17,18,20)           109.4682         estimate D2E/DX2                !
 ! A57   A(17,18,21)           109.4543         estimate D2E/DX2                !
 ! A58   A(19,18,20)           109.4764         estimate D2E/DX2                !
 ! A59   A(19,18,21)           109.4793         estimate D2E/DX2                !
 ! A60   A(20,18,21)           109.4541         estimate D2E/DX2                !
 ! A61   A(8,22,23)            109.4547         estimate D2E/DX2                !
 ! A62   A(8,22,24)            109.4507         estimate D2E/DX2                !
 ! A63   A(8,22,25)            109.4464         estimate D2E/DX2                !
 ! A64   A(23,22,24)           109.5204         estimate D2E/DX2                !
 ! A65   A(23,22,25)           109.4679         estimate D2E/DX2                !
 ! A66   A(24,22,25)           109.4873         estimate D2E/DX2                !
 ! A67   L(1,5,2,22,-1)        180.378          estimate D2E/DX2                !
 ! A68   L(1,6,3,14,-1)        180.2595         estimate D2E/DX2                !
 ! A69   L(1,7,4,18,-1)        177.3973         estimate D2E/DX2                !
 ! A70   L(1,5,2,22,-2)        179.7998         estimate D2E/DX2                !
 ! A71   L(1,6,3,14,-2)        179.2321         estimate D2E/DX2                !
 ! A72   L(1,7,4,18,-2)        179.6806         estimate D2E/DX2                !
 ! D1    D(5,1,8,22)           -24.9831         estimate D2E/DX2                !
 ! D2    D(6,1,8,22)          -121.3021         estimate D2E/DX2                !
 ! D3    D(7,1,8,22)            64.8685         estimate D2E/DX2                !
 ! D4    D(11,1,8,22)         -141.3354         estimate D2E/DX2                !
 ! D5    D(13,1,8,22)         -177.0159         estimate D2E/DX2                !
 ! D6    D(15,1,8,22)          147.951          estimate D2E/DX2                !
 ! D7    D(5,1,9,10)            18.8383         estimate D2E/DX2                !
 ! D8    D(6,1,9,10)           -69.1929         estimate D2E/DX2                !
 ! D9    D(7,1,9,10)           110.0563         estimate D2E/DX2                !
 ! D10   D(13,1,9,10)         -144.0205         estimate D2E/DX2                !
 ! D11   D(15,1,9,10)         -179.5048         estimate D2E/DX2                !
 ! D12   D(17,1,9,10)          144.3467         estimate D2E/DX2                !
 ! D13   D(5,1,11,12)           60.7821         estimate D2E/DX2                !
 ! D14   D(6,1,11,12)          -28.5978         estimate D2E/DX2                !
 ! D15   D(7,1,11,12)         -131.5799         estimate D2E/DX2                !
 ! D16   D(8,1,11,12)          144.0855         estimate D2E/DX2                !
 ! D17   D(15,1,11,12)        -144.7326         estimate D2E/DX2                !
 ! D18   D(17,1,11,12)         179.6123         estimate D2E/DX2                !
 ! D19   D(5,1,13,14)          107.826          estimate D2E/DX2                !
 ! D20   D(6,1,13,14)           18.1931         estimate D2E/DX2                !
 ! D21   D(7,1,13,14)          -72.5126         estimate D2E/DX2                !
 ! D22   D(8,1,13,14)         -179.5864         estimate D2E/DX2                !
 ! D23   D(9,1,13,14)          144.8578         estimate D2E/DX2                !
 ! D24   D(17,1,13,14)        -144.063          estimate D2E/DX2                !
 ! D25   D(5,1,15,16)         -125.7901         estimate D2E/DX2                !
 ! D26   D(6,1,15,16)           60.0724         estimate D2E/DX2                !
 ! D27   D(7,1,15,16)          -30.6421         estimate D2E/DX2                !
 ! D28   D(8,1,15,16)         -144.2426         estimate D2E/DX2                !
 ! D29   D(9,1,15,16)          179.792          estimate D2E/DX2                !
 ! D30   D(11,1,15,16)         144.01           estimate D2E/DX2                !
 ! D31   D(5,1,17,18)          -72.2181         estimate D2E/DX2                !
 ! D32   D(6,1,17,18)          102.6889         estimate D2E/DX2                !
 ! D33   D(7,1,17,18)           14.9176         estimate D2E/DX2                !
 ! D34   D(9,1,17,18)         -147.5248         estimate D2E/DX2                !
 ! D35   D(11,1,17,18)         177.0386         estimate D2E/DX2                !
 ! D36   D(13,1,17,18)         141.3342         estimate D2E/DX2                !
 ! D37   D(17,8,9,10)         -171.403          estimate D2E/DX2                !
 ! D38   D(17,8,9,11)            1.9405         estimate D2E/DX2                !
 ! D39   D(22,8,9,10)           11.7017         estimate D2E/DX2                !
 ! D40   D(22,8,9,11)         -174.9548         estimate D2E/DX2                !
 ! D41   D(9,8,17,15)           -1.3298         estimate D2E/DX2                !
 ! D42   D(9,8,17,18)         -178.8268         estimate D2E/DX2                !
 ! D43   D(22,8,17,15)         175.4556         estimate D2E/DX2                !
 ! D44   D(22,8,17,18)          -2.0414         estimate D2E/DX2                !
 ! D45   D(1,8,22,23)         -179.6386         estimate D2E/DX2                !
 ! D46   D(1,8,22,24)           60.3239         estimate D2E/DX2                !
 ! D47   D(1,8,22,25)          -59.6679         estimate D2E/DX2                !
 ! D48   D(9,8,22,23)           91.1545         estimate D2E/DX2                !
 ! D49   D(9,8,22,24)          -28.883          estimate D2E/DX2                !
 ! D50   D(9,8,22,25)         -148.8749         estimate D2E/DX2                !
 ! D51   D(17,8,22,23)         -85.6219         estimate D2E/DX2                !
 ! D52   D(17,8,22,24)         154.3406         estimate D2E/DX2                !
 ! D53   D(17,8,22,25)          34.3487         estimate D2E/DX2                !
 ! D54   D(8,9,11,12)         -173.9846         estimate D2E/DX2                !
 ! D55   D(8,9,11,13)           -1.961          estimate D2E/DX2                !
 ! D56   D(10,9,11,12)          -0.6387         estimate D2E/DX2                !
 ! D57   D(10,9,11,13)         171.3848         estimate D2E/DX2                !
 ! D58   D(9,11,13,14)        -172.1167         estimate D2E/DX2                !
 ! D59   D(9,11,13,15)           1.376          estimate D2E/DX2                !
 ! D60   D(12,11,13,14)         -0.0877         estimate D2E/DX2                !
 ! D61   D(12,11,13,15)        173.405          estimate D2E/DX2                !
 ! D62   D(11,13,15,16)       -172.326          estimate D2E/DX2                !
 ! D63   D(11,13,15,17)         -0.8418         estimate D2E/DX2                !
 ! D64   D(14,13,15,16)          1.1654         estimate D2E/DX2                !
 ! D65   D(14,13,15,17)        172.6495         estimate D2E/DX2                !
 ! D66   D(13,15,17,8)           0.8241         estimate D2E/DX2                !
 ! D67   D(13,15,17,18)        178.3984         estimate D2E/DX2                !
 ! D68   D(16,15,17,8)         172.3041         estimate D2E/DX2                !
 ! D69   D(16,15,17,18)        -10.1215         estimate D2E/DX2                !
 ! D70   D(1,17,18,19)         179.9921         estimate D2E/DX2                !
 ! D71   D(1,17,18,20)          59.9731         estimate D2E/DX2                !
 ! D72   D(1,17,18,21)         -59.9937         estimate D2E/DX2                !
 ! D73   D(8,17,18,19)          86.5915         estimate D2E/DX2                !
 ! D74   D(8,17,18,20)         -33.4275         estimate D2E/DX2                !
 ! D75   D(8,17,18,21)        -153.3944         estimate D2E/DX2                !
 ! D76   D(15,17,18,19)        -90.9021         estimate D2E/DX2                !
 ! D77   D(15,17,18,20)        149.0788         estimate D2E/DX2                !
 ! D78   D(15,17,18,21)         29.112          estimate D2E/DX2                !
 --------------------------------------------------------------------------------
 Trust Radius=3.00D-01 FncErr=1.00D-07 GrdErr=1.00D-06 EigMax=2.50D+02 EigMin=1.00D-04
 Number of steps in this run=    150 maximum allowed number of steps=    150.
 GradGradGradGradGradGradGradGradGradGradGradGradGradGradGradGradGradGrad

                          Input orientation:                          
 ---------------------------------------------------------------------
 Center     Atomic      Atomic             Coordinates (Angstroms)
 Number     Number       Type             X           Y           Z
 ---------------------------------------------------------------------
      1         42           0        0.337800   -1.824300    3.035300
      2          8           0        2.230800   -2.820900    0.779900
      3          8           0        2.208600   -3.370000    4.975000
      4          8           0        2.172300    0.663700    3.303400
      5          6           0        1.526300   -2.453100    1.611100
      6          6           0        1.519400   -2.793200    4.266200
      7          6           0        1.520400   -0.275600    3.209000
      8          6           0       -1.568900   -1.404000    1.642100
      9          6           0       -1.596800   -2.752700    2.059000
     10          1           0       -1.495300   -3.465700    1.380000
     11          6           0       -1.626000   -3.107800    3.413600
     12          1           0       -1.555500   -4.058700    3.681200
     13          6           0       -1.585500   -2.092000    4.391100
     14          1           0       -1.487800   -2.328600    5.346500
     15          6           0       -1.546600   -0.761100    3.997500
     16          1           0       -1.402800   -0.063900    4.685300
     17          6           0       -1.528600   -0.387800    2.629600
     18          6           0       -1.523100    1.071800    2.272400
     19          1           0       -2.435800    1.383300    2.169600
     20          1           0       -1.042300    1.199000    1.439800
     21          1           0       -1.086700    1.575600    2.977900
     22          6           0       -1.654100   -1.094400    0.173600
     23          1           0       -2.582900   -0.972200   -0.077400
     24          1           0       -1.275100   -1.829200   -0.334000
     25          1           0       -1.158800   -0.281800   -0.014400
 ---------------------------------------------------------------------
                    Distance matrix (angstroms):
                    1          2          3          4          5
     1  Mo   0.000000
     2  O    3.108615   0.000000
     3  O    3.106689   4.230942   0.000000
     4  O    3.102807   4.302780   4.366497   0.000000
     5  C    1.958639   1.149996   3.552754   3.604946   0.000000
     6  C    1.962157   3.558250   1.144593   3.647385   2.676803
     7  C    1.956320   3.589394   3.628731   1.147244   2.700893
     8  C    2.398575   4.145927   5.407669   4.586053   3.268308
     9  C    2.357491   4.036245   4.833755   5.237025   3.169247
    10  H    2.965547   3.828800   5.162563   5.848308   3.195126
    11  C    2.376340   4.679059   4.148599   5.353825   3.689801
    12  H    2.999052   4.928058   4.039390   6.028291   4.044843
    13  C    2.368320   5.304357   4.045914   4.785189   4.188328
    14  H    2.988106   5.909668   3.858225   5.150189   4.801407
    15  C    2.367950   5.372567   4.675831   4.042530   4.242698
    16  H    2.975096   6.004685   4.904736   3.901332   4.872228
    17  C    2.389890   4.845044   5.325512   3.905934   3.825601
    18  C    3.525955   5.610030   6.399939   3.858172   4.707555
    19  H    4.327932   6.433018   7.213500   4.799783   5.543295
    20  H    3.686548   5.225729   6.628857   3.754092   4.468208
    21  H    3.686708   5.930112   6.269479   3.399793   4.992628
    22  C    3.562267   4.294281   6.569037   5.246704   3.745319
    23  H    4.352639   5.227271   7.364419   6.059530   4.682907
    24  H    3.735459   3.809931   6.534196   5.597303   3.467060
    25  H    3.730923   4.308982   6.765388   4.795622   3.816616
                    6          7          8          9         10
     6  C    0.000000
     7  C    2.730565   0.000000
     8  C    4.284084   3.643108   0.000000
     9  C    3.818910   4.144329   1.411940   0.000000
    10  H    4.227390   4.755673   2.079596   0.989804   0.000000
    11  C    3.274056   4.238284   2.458538   1.400675   2.068986
    12  H    3.376200   4.898569   3.347468   2.082997   2.377140
    13  C    3.185543   3.787253   2.833835   2.423911   3.310878
    14  H    3.228955   4.222912   3.818906   3.316534   4.126279
    15  C    3.688087   3.203737   2.441665   2.779707   3.764147
    16  H    4.020445   3.281673   3.329343   3.763606   4.744029
    17  C    4.213634   3.105591   1.417548   2.433719   3.322059
    18  C    5.307567   3.457687   2.555183   3.831158   4.624506
    19  H    6.122295   4.414048   2.966279   4.221688   5.002081
    20  H    5.521640   3.445569   2.663427   4.038169   4.687026
    21  H    5.247655   3.205826   3.300742   4.454072   5.304238
    22  C    5.450358   4.467834   1.503198   2.511568   2.665273
    23  H    6.245940   5.303088   2.042383   2.950725   3.086168
    24  H    5.468123   4.772980   2.042568   2.585110   2.380003
    25  H    5.639452   4.191475   2.042427   3.255177   3.492106
                   11         12         13         14         15
    11  C    0.000000
    12  H    0.990349   0.000000
    13  C    1.410318   2.091116   0.000000
    14  H    2.088625   2.402302   0.989098   0.000000
    15  C    2.419555   3.312747   1.388427   2.068892   0.000000
    16  H    3.306413   4.121888   2.057455   2.360779   0.989866
    17  C    2.832409   3.818651   2.451615   3.339149   1.418036
    18  C    4.333818   5.320507   3.808203   4.584109   2.517150
    19  H    4.730041   5.716225   4.211387   4.976907   2.954716
    20  H    4.773376   5.738524   4.453753   5.282493   3.261616
    21  H    4.734439   5.697345   3.961972   4.584095   2.590610
    22  C    3.814731   4.593480   4.334422   5.320695   3.839903
    23  H    4.202800   4.970826   4.713412   5.697171   4.209904
    24  H    3.975230   4.601209   4.742571   5.706376   4.469501
    25  H    4.467184   5.299038   4.781979   5.747772   4.058997
                   16         17         18         19         20
    16  H    0.000000
    17  C    2.084860   0.000000
    18  C    2.669527   1.502682   0.000000
    19  H    3.080621   2.042402   0.969856   0.000000
    20  H    3.501164   2.042069   0.969831   1.583798   0.000000
    21  H    2.388115   2.042432   0.970562   1.584424   1.584156
    22  C    4.634708   2.558705   3.019030   3.276289   2.690213
    23  H    4.990086   2.963262   3.289783   3.258685   3.064222
    24  H    5.322214   3.305272   3.907765   4.235020   3.517180
    25  H    4.711072   2.671839   2.682238   3.028720   2.078711
                   21         22         23         24         25
    21  H    0.000000
    22  C    3.913431   0.000000
    23  H    4.250266   0.969847   0.000000
    24  H    4.753613   0.970170   1.584498   0.000000
    25  H    3.522640   0.970044   1.583882   1.584335   0.000000
 Stoichiometry    C11H10MoO3
 Framework group  C1[X(C11H10MoO3)]
 Deg. of freedom    69
 Full point group                 C1      NOp   1
 Largest Abelian subgroup         C1      NOp   1
 Largest concise Abelian subgroup C1      NOp   1
                         Standard orientation:                         
 ---------------------------------------------------------------------
 Center     Atomic      Atomic             Coordinates (Angstroms)
 Number     Number       Type             X           Y           Z
 ---------------------------------------------------------------------
      1         42           0       -0.443439   -0.084472   -0.012883
      2          8           0       -1.543675    1.484315    2.434949
      3          8           0       -3.378779   -1.000151   -0.456538
      4          8           0       -1.008272    2.440111   -1.726026
      5          6           0       -1.132350    0.902586    1.532234
      6          6           0       -2.296547   -0.660951   -0.302234
      7          6           0       -0.831065    1.506736   -1.082925
      8          6           0        1.837325   -0.195246    0.721289
      9          6           0        1.132528   -1.296720    1.253825
     10          1           0        1.012392   -1.359270    2.234318
     11          6           0        0.483387   -2.226900    0.432076
     12          1           0       -0.077370   -2.938849    0.831413
     13          6           0        0.498656   -2.037458   -0.965377
     14          1           0       -0.050482   -2.617140   -1.549098
     15          6           0        1.177933   -0.953020   -1.504178
     16          1           0        1.086646   -0.765433   -2.471811
     17          6           0        1.849057   -0.010701   -0.684146
     18          6           0        2.595728    1.119886   -1.334000
     19          1           0        3.515614    0.854003   -1.488062
     20          1           0        2.576489    1.896169   -0.752977
     21          1           0        2.176153    1.339697   -2.181130
     22          6           0        2.605332    0.697673    1.655346
     23          1           0        3.516258    0.374488    1.735150
     24          1           0        2.181923    0.692614    2.528232
     25          1           0        2.612712    1.602016    1.304497
 ---------------------------------------------------------------------
 Rotational constants (GHZ):           0.6964882           0.4946667           0.4805269
 General basis read from cards:  (5D, 7F)
 ======================================================================================================
                                       Pseudopotential Parameters
 ======================================================================================================
  Center     Atomic      Valence      Angular      Power
  Number     Number     Electrons     Momentum     of R      Exponent        Coefficient   SO-Coeffient
 ======================================================================================================
    1         42           14
                                      F and up 
                                                     0      537.9667807       -0.04694920    0.00000000
                                                     1      147.8982938      -20.20800840    0.00000000
                                                     2       45.7358898     -106.21163020    0.00000000
                                                     2       13.2911467      -41.81073680    0.00000000
                                                     2        4.7059961       -4.20541030    0.00000000
                                      S - F
                                                     0      110.2991760        2.80637170    0.00000000
                                                     1       23.2014645       44.51620120    0.00000000
                                                     2        5.3530131       82.77852270    0.00000000
                                      P - F
                                                     0       63.2901397        4.94208760    0.00000000
                                                     1       23.3315302       25.86049760    0.00000000
                                                     2       24.6759423      132.47087420    0.00000000
                                                     2        4.6493040       57.31497940    0.00000000
                                      D - F
                                                     0      104.4839977        3.00545910    0.00000000
                                                     1       66.2307245       26.36378510    0.00000000
                                                     2       39.1283176      183.38491990    0.00000000
                                                     2       13.1164437       98.44530680    0.00000000
                                                     2        3.6280263       22.49013770    0.00000000
    2          8
                                   No pseudopotential on this center.
    3          8
                                   No pseudopotential on this center.
    4          8
                                   No pseudopotential on this center.
    5          6
                                   No pseudopotential on this center.
    6          6
                                   No pseudopotential on this center.
    7          6
                                   No pseudopotential on this center.
    8          6
                                   No pseudopotential on this center.
    9          6
                                   No pseudopotential on this center.
   10          1
                                   No pseudopotential on this center.
   11          6
                                   No pseudopotential on this center.
   12          1
                                   No pseudopotential on this center.
   13          6
                                   No pseudopotential on this center.
   14          1
                                   No pseudopotential on this center.
   15          6
                                   No pseudopotential on this center.
   16          1
                                   No pseudopotential on this center.
   17          6
                                   No pseudopotential on this center.
   18          6
                                   No pseudopotential on this center.
   19          1
                                   No pseudopotential on this center.
   20          1
                                   No pseudopotential on this center.
   21          1
                                   No pseudopotential on this center.
   22          6
                                   No pseudopotential on this center.
   23          1
                                   No pseudopotential on this center.
   24          1
                                   No pseudopotential on this center.
   25          1
                                   No pseudopotential on this center.
 ======================================================================================================
 There are   284 symmetry adapted cartesian basis functions of A   symmetry.
 There are   268 symmetry adapted basis functions of A   symmetry.
   268 basis functions,   511 primitive gaussians,   284 cartesian basis functions
    57 alpha electrons       57 beta electrons
       nuclear repulsion energy      1081.4340896095 Hartrees.
 NAtoms=   25 NActive=   25 NUniq=   25 SFac= 1.00D+00 NAtFMM=   60 NAOKFM=F Big=F
 Integral buffers will be    131072 words long.
 Raffenetti 2 integral format.
 Two-electron integral symmetry is turned on.
 Nuclear repulsion after empirical dispersion term =     1081.4121980955 Hartrees.
 One-electron integrals computed using PRISM.
   1 Symmetry operations used in ECPInt.
 ECPInt:  NShTT=    4465 NPrTT=   24826 LenC2=    4230 LenP2D=   15774.
 LDataN:  DoStor=T MaxTD1= 5 Len=  102
 NBasis=   268 RedAO= T EigKep=  4.50D-04  NBF=   268
 NBsUse=   268 1.00D-06 EigRej= -1.00D+00 NBFU=   268
 Defaulting to unpruned grid for atomic number  42.
 ExpMin= 2.47D-02 ExpMax= 5.48D+03 ExpMxC= 8.25D+02 IAcc=3 IRadAn=         5 AccDes= 0.00D+00
 Harris functional with IExCor= 1009 and IRadAn=       5 diagonalized for initial guess.
 HarFok:  IExCor= 1009 AccDes= 0.00D+00 IRadAn=         5 IDoV= 1 UseB2=F ITyADJ=14
 ICtDFT=  3500011 ScaDFX=  1.000000  1.000000  1.000000  1.000000
 Defaulting to unpruned grid for atomic number  42.
 FoFCou: FMM=F IPFlag=           0 FMFlag=      100000 FMFlg1=           0
         NFxFlg=           0 DoJE=T BraDBF=F KetDBF=T FulRan=T
         wScrn=  0.000000 ICntrl=       500 IOpCl=  0 I1Cent=   200000004 NGrid=           0
         NMat0=    1 NMatS0=      1 NMatT0=    0 NMatD0=    1 NMtDS0=    0 NMtDT0=    0
 Petite list used in FoFCou.
 Requested convergence on RMS density matrix=1.00D-08 within 128 cycles.
 Requested convergence on MAX density matrix=1.00D-06.
 Requested convergence on             energy=1.00D-06.
 No special actions if energy rises.
 Defaulting to unpruned grid for atomic number  42.
 Defaulting to unpruned grid for atomic number  42.
 Defaulting to unpruned grid for atomic number  42.
 Defaulting to unpruned grid for atomic number  42.
 Defaulting to unpruned grid for atomic number  42.
 Defaulting to unpruned grid for atomic number  42.
 Defaulting to unpruned grid for atomic number  42.
 Defaulting to unpruned grid for atomic number  42.
 EnCoef did     3 forward-backward iterations
 SCF Done:  E(RTPSS-TPSS) =  -718.514417464     A.U. after   18 cycles
            NFock= 18  Conv=0.30D-08     -V/T= 2.0703

 **********************************************************************

            Population analysis using the SCF Density.

 **********************************************************************

 Orbital symmetries:
       Occupied  (A) (A) (A) (A) (A) (A) (A) (A) (A) (A) (A) (A)
                 (A) (A) (A) (A) (A) (A) (A) (A) (A) (A) (A) (A)
                 (A) (A) (A) (A) (A) (A) (A) (A) (A) (A) (A) (A)
                 (A) (A) (A) (A) (A) (A) (A) (A) (A) (A) (A) (A)
                 (A) (A) (A) (A) (A) (A) (A) (A) (A)
       Virtual   (A) (A) (A) (A) (A) (A) (A) (A) (A) (A) (A) (A)
                 (A) (A) (A) (A) (A) (A) (A) (A) (A) (A) (A) (A)
                 (A) (A) (A) (A) (A) (A) (A) (A) (A) (A) (A) (A)
                 (A) (A) (A) (A) (A) (A) (A) (A) (A) (A) (A) (A)
                 (A) (A) (A) (A) (A) (A) (A) (A) (A) (A) (A) (A)
                 (A) (A) (A) (A) (A) (A) (A) (A) (A) (A) (A) (A)
                 (A) (A) (A) (A) (A) (A) (A) (A) (A) (A) (A) (A)
                 (A) (A) (A) (A) (A) (A) (A) (A) (A) (A) (A) (A)
                 (A) (A) (A) (A) (A) (A) (A) (A) (A) (A) (A) (A)
                 (A) (A) (A) (A) (A) (A) (A) (A) (A) (A) (A) (A)
                 (A) (A) (A) (A) (A) (A) (A) (A) (A) (A) (A) (A)
                 (A) (A) (A) (A) (A) (A) (A) (A) (A) (A) (A) (A)
                 (A) (A) (A) (A) (A) (A) (A) (A) (A) (A) (A) (A)
                 (A) (A) (A) (A) (A) (A) (A) (A) (A) (A) (A) (A)
                 (A) (A) (A) (A) (A) (A) (A) (A) (A) (A) (A) (A)
                 (A) (A) (A) (A) (A) (A) (A) (A) (A) (A) (A) (A)
                 (A) (A) (A) (A) (A) (A) (A) (A) (A) (A) (A) (A)
                 (A) (A) (A) (A) (A) (A) (A)
 The electronic state is 1-A.
 Alpha  occ. eigenvalues --  -18.94325 -18.94230 -18.94113 -10.06787 -10.06723
 Alpha  occ. eigenvalues --  -10.06708 -10.04512 -10.04160 -10.03058 -10.02905
 Alpha  occ. eigenvalues --  -10.02794 -10.02582  -9.97850  -9.97802  -2.33369
 Alpha  occ. eigenvalues --   -1.40486  -1.38762  -1.38678  -1.02574  -1.02523
 Alpha  occ. eigenvalues --   -1.02172  -0.84629  -0.76803  -0.75647  -0.69989
 Alpha  occ. eigenvalues --   -0.67571  -0.59787  -0.57527  -0.51088  -0.49002
 Alpha  occ. eigenvalues --   -0.47465  -0.47285  -0.46665  -0.45596  -0.43936
 Alpha  occ. eigenvalues --   -0.42258  -0.41408  -0.40590  -0.39112  -0.39089
 Alpha  occ. eigenvalues --   -0.38554  -0.38202  -0.38129  -0.38059  -0.37178
 Alpha  occ. eigenvalues --   -0.37008  -0.36442  -0.35693  -0.35614  -0.34220
 Alpha  occ. eigenvalues --   -0.33404  -0.33031  -0.28671  -0.27674  -0.18256
 Alpha  occ. eigenvalues --   -0.17882  -0.17723
 Alpha virt. eigenvalues --   -0.06245  -0.06003  -0.02676  -0.02581   0.00647
 Alpha virt. eigenvalues --    0.00855   0.01843   0.02150   0.03700   0.04025
 Alpha virt. eigenvalues --    0.04296   0.04909   0.05308   0.06422   0.07237
 Alpha virt. eigenvalues --    0.12742   0.13872   0.14798   0.15584   0.16291
 Alpha virt. eigenvalues --    0.17019   0.17117   0.18039   0.18974   0.19458
 Alpha virt. eigenvalues --    0.21131   0.23364   0.25120   0.25406   0.25759
 Alpha virt. eigenvalues --    0.26751   0.27628   0.29155   0.29678   0.31144
 Alpha virt. eigenvalues --    0.32397   0.37138   0.41200   0.42112   0.44129
 Alpha virt. eigenvalues --    0.45033   0.45733   0.45945   0.47025   0.49018
 Alpha virt. eigenvalues --    0.50036   0.51924   0.53092   0.53577   0.56033
 Alpha virt. eigenvalues --    0.58853   0.60319   0.61549   0.64520   0.65772
 Alpha virt. eigenvalues --    0.65820   0.66789   0.67545   0.69143   0.70690
 Alpha virt. eigenvalues --    0.71419   0.72075   0.72734   0.74305   0.75849
 Alpha virt. eigenvalues --    0.76647   0.78551   0.78857   0.79718   0.80740
 Alpha virt. eigenvalues --    0.81555   0.82708   0.83912   0.84814   0.86261
 Alpha virt. eigenvalues --    0.88519   0.89451   0.90009   0.91665   0.92057
 Alpha virt. eigenvalues --    0.93068   0.94703   0.97126   0.97723   1.00988
 Alpha virt. eigenvalues --    1.01408   1.02266   1.02509   1.06462   1.06609
 Alpha virt. eigenvalues --    1.07355   1.08991   1.11021   1.13434   1.14504
 Alpha virt. eigenvalues --    1.16984   1.19354   1.20623   1.22082   1.24478
 Alpha virt. eigenvalues --    1.24906   1.26457   1.28615   1.29555   1.31349
 Alpha virt. eigenvalues --    1.33228   1.39374   1.40762   1.44092   1.46560
 Alpha virt. eigenvalues --    1.48887   1.49183   1.49286   1.49765   1.51628
 Alpha virt. eigenvalues --    1.51772   1.55076   1.56279   1.57581   1.59649
 Alpha virt. eigenvalues --    1.60878   1.62018   1.64851   1.66900   1.69178
 Alpha virt. eigenvalues --    1.71308   1.76525   1.77750   1.78221   1.78864
 Alpha virt. eigenvalues --    1.81426   1.82893   1.84217   1.84890   1.87303
 Alpha virt. eigenvalues --    1.92923   1.93848   1.94279   1.95175   1.95825
 Alpha virt. eigenvalues --    1.96750   1.98245   1.98939   2.02462   2.03458
 Alpha virt. eigenvalues --    2.04975   2.06058   2.09133   2.09785   2.10410
 Alpha virt. eigenvalues --    2.12208   2.12982   2.15987   2.21693   2.22848
 Alpha virt. eigenvalues --    2.24762   2.26699   2.27556   2.28932   2.32927
 Alpha virt. eigenvalues --    2.37672   2.39678   2.42156   2.43162   2.45253
 Alpha virt. eigenvalues --    2.45890   2.48322   2.50156   2.51342   2.53205
 Alpha virt. eigenvalues --    2.53927   2.56019   2.57214   2.57713   2.58879
 Alpha virt. eigenvalues --    2.59830   2.59952   2.60693   2.61229   2.62211
 Alpha virt. eigenvalues --    2.64199   2.67030   2.67377   2.73123   2.78416
 Alpha virt. eigenvalues --    2.79870   2.83183   2.84791   2.92770   2.97366
 Alpha virt. eigenvalues --    3.00746   3.04570   3.05175   3.06650   3.09937
 Alpha virt. eigenvalues --    3.11487   3.19569   3.22515   3.25180   3.45649
 Alpha virt. eigenvalues --    3.52592   3.56600   3.64695   3.65590   3.69569
 Alpha virt. eigenvalues --    3.74121   3.74996   3.75788   3.77383   4.03296
 Alpha virt. eigenvalues --   17.86914
          Condensed to atoms (all electrons):
               1          2          3          4          5          6
     1  Mo  13.252336  -0.007898  -0.007236  -0.008875   0.233212   0.234497
     2  O   -0.007898   7.720820   0.000074   0.000058   0.573597  -0.001962
     3  O   -0.007236   0.000074   7.708851   0.000046  -0.002061   0.578941
     4  O   -0.008875   0.000058   0.000046   7.718069  -0.001794  -0.001452
     5  C    0.233212   0.573597  -0.002061  -0.001794   4.989083  -0.011784
     6  C    0.234497  -0.001962   0.578941  -0.001452  -0.011784   4.973431
     7  C    0.235469  -0.001923  -0.001637   0.575269  -0.009882  -0.012113
     8  C    0.032026  -0.000367   0.000004   0.000032   0.006063  -0.002481
     9  C    0.039759  -0.000527   0.000017   0.000006   0.011042  -0.000440
    10  H   -0.006771   0.000100  -0.000000  -0.000000  -0.001036  -0.000045
    11  C    0.032077   0.000011  -0.000338   0.000003   0.000451   0.008439
    12  H   -0.004846  -0.000000   0.000032  -0.000000  -0.000233  -0.000845
    13  C    0.050811   0.000006  -0.000529   0.000026  -0.002162   0.010846
    14  H   -0.004295  -0.000000   0.000088   0.000000   0.000013  -0.000882
    15  C    0.016444   0.000003   0.000010  -0.000462  -0.002632   0.000672
    16  H   -0.006911  -0.000000  -0.000001   0.000043   0.000010  -0.000164
    17  C    0.053623   0.000029   0.000006  -0.000898   0.000204  -0.002254
    18  C   -0.004718   0.000001   0.000000   0.000192  -0.000042   0.000020
    19  H    0.004782  -0.000000  -0.000000  -0.000004   0.000000  -0.000001
    20  H   -0.007072  -0.000002  -0.000000   0.000034  -0.000001   0.000004
    21  H   -0.003969   0.000000  -0.000000   0.000665  -0.000013   0.000004
    22  C   -0.003941   0.000025   0.000000   0.000004  -0.000841   0.000013
    23  H    0.004317  -0.000003  -0.000000  -0.000000   0.000108  -0.000000
    24  H   -0.003988   0.000114  -0.000000   0.000000   0.000305   0.000003
    25  H   -0.007120   0.000005  -0.000000  -0.000007  -0.000481   0.000002
               7          8          9         10         11         12
     1  Mo   0.235469   0.032026   0.039759  -0.006771   0.032077  -0.004846
     2  O   -0.001923  -0.000367  -0.000527   0.000100   0.000011  -0.000000
     3  O   -0.001637   0.000004   0.000017  -0.000000  -0.000338   0.000032
     4  O    0.575269   0.000032   0.000006  -0.000000   0.000003  -0.000000
     5  C   -0.009882   0.006063   0.011042  -0.001036   0.000451  -0.000233
     6  C   -0.012113  -0.002481  -0.000440  -0.000045   0.008439  -0.000845
     7  C    4.989306   0.001267  -0.002240  -0.000001  -0.002332   0.000014
     8  C    0.001267   4.956174   0.422100  -0.043788  -0.039985   0.005256
     9  C   -0.002240   0.422100   5.016331   0.402427   0.454003  -0.039059
    10  H   -0.000001  -0.043788   0.402427   0.559201  -0.045801  -0.006885
    11  C   -0.002332  -0.039985   0.454003  -0.045801   4.960320   0.403511
    12  H    0.000014   0.005256  -0.039059  -0.006885   0.403511   0.545354
    13  C   -0.000866  -0.035096  -0.039974   0.006089   0.434117  -0.043433
    14  H   -0.000124   0.000420   0.005385  -0.000172  -0.042784  -0.006252
    15  C    0.008563  -0.045075  -0.040823  -0.000058  -0.045414   0.005648
    16  H   -0.001029   0.006964  -0.000234   0.000026   0.006372  -0.000170
    17  C    0.007934   0.451284  -0.046047   0.006859  -0.034104   0.000301
    18  C   -0.001503  -0.058377   0.007642  -0.000111  -0.000551   0.000012
    19  H    0.000245  -0.003393  -0.000265  -0.000003   0.000038  -0.000000
    20  H   -0.000651  -0.005433  -0.000014  -0.000000   0.000023   0.000000
    21  H    0.000442   0.005040  -0.000237   0.000005   0.000019   0.000000
    22  C   -0.000131   0.408388  -0.061843  -0.010390   0.007076  -0.000138
    23  H    0.000005  -0.029089  -0.001545   0.000130  -0.000260  -0.000003
    24  H   -0.000048  -0.022544  -0.005363   0.005057   0.000068  -0.000003
    25  H    0.000021  -0.022417   0.005384   0.000214  -0.000239   0.000004
              13         14         15         16         17         18
     1  Mo   0.050811  -0.004295   0.016444  -0.006911   0.053623  -0.004718
     2  O    0.000006  -0.000000   0.000003  -0.000000   0.000029   0.000001
     3  O   -0.000529   0.000088   0.000010  -0.000001   0.000006   0.000000
     4  O    0.000026   0.000000  -0.000462   0.000043  -0.000898   0.000192
     5  C   -0.002162   0.000013  -0.002632   0.000010   0.000204  -0.000042
     6  C    0.010846  -0.000882   0.000672  -0.000164  -0.002254   0.000020
     7  C   -0.000866  -0.000124   0.008563  -0.001029   0.007934  -0.001503
     8  C   -0.035096   0.000420  -0.045075   0.006964   0.451284  -0.058377
     9  C   -0.039974   0.005385  -0.040823  -0.000234  -0.046047   0.007642
    10  H    0.006089  -0.000172  -0.000058   0.000026   0.006859  -0.000111
    11  C    0.434117  -0.042784  -0.045414   0.006372  -0.034104  -0.000551
    12  H   -0.043433  -0.006252   0.005648  -0.000170   0.000301   0.000012
    13  C    4.950251   0.401689   0.455918  -0.047146  -0.036332   0.007254
    14  H    0.401689   0.544842  -0.038624  -0.007253   0.005272  -0.000144
    15  C    0.455918  -0.038624   5.012515   0.404229   0.423638  -0.061232
    16  H   -0.047146  -0.007253   0.404229   0.561102  -0.044833  -0.010169
    17  C   -0.036332   0.005272   0.423638  -0.044833   4.964846   0.402074
    18  C    0.007254  -0.000144  -0.061232  -0.010169   0.402074   4.892191
    19  H   -0.000228  -0.000002  -0.001445   0.000127  -0.027558   0.395283
    20  H   -0.000266   0.000004   0.005241   0.000201  -0.022283   0.393450
    21  H    0.000048  -0.000004  -0.005195   0.004969  -0.022645   0.395292
    22  C   -0.000681   0.000012   0.007393  -0.000108  -0.058244  -0.014725
    23  H    0.000056  -0.000000  -0.000273  -0.000004  -0.003206   0.000887
    24  H    0.000023   0.000000  -0.000197   0.000005   0.005034   0.000364
    25  H    0.000025   0.000000  -0.000020   0.000001  -0.005858   0.002783
              19         20         21         22         23         24
     1  Mo   0.004782  -0.007072  -0.003969  -0.003941   0.004317  -0.003988
     2  O   -0.000000  -0.000002   0.000000   0.000025  -0.000003   0.000114
     3  O   -0.000000  -0.000000  -0.000000   0.000000  -0.000000  -0.000000
     4  O   -0.000004   0.000034   0.000665   0.000004  -0.000000   0.000000
     5  C    0.000000  -0.000001  -0.000013  -0.000841   0.000108   0.000305
     6  C   -0.000001   0.000004   0.000004   0.000013  -0.000000   0.000003
     7  C    0.000245  -0.000651   0.000442  -0.000131   0.000005  -0.000048
     8  C   -0.003393  -0.005433   0.005040   0.408388  -0.029089  -0.022544
     9  C   -0.000265  -0.000014  -0.000237  -0.061843  -0.001545  -0.005363
    10  H   -0.000003  -0.000000   0.000005  -0.010390   0.000130   0.005057
    11  C    0.000038   0.000023   0.000019   0.007076  -0.000260   0.000068
    12  H   -0.000000   0.000000   0.000000  -0.000138  -0.000003  -0.000003
    13  C   -0.000228  -0.000266   0.000048  -0.000681   0.000056   0.000023
    14  H   -0.000002   0.000004  -0.000004   0.000012  -0.000000   0.000000
    15  C   -0.001445   0.005241  -0.005195   0.007393  -0.000273  -0.000197
    16  H    0.000127   0.000201   0.004969  -0.000108  -0.000004   0.000005
    17  C   -0.027558  -0.022283  -0.022645  -0.058244  -0.003206   0.005034
    18  C    0.395283   0.393450   0.395292  -0.014725   0.000887   0.000364
    19  H    0.548032  -0.031601  -0.032420   0.001085   0.000434  -0.000037
    20  H   -0.031601   0.546759  -0.026519   0.002146  -0.000379  -0.000023
    21  H   -0.032420  -0.026519   0.540325   0.000389  -0.000039  -0.000003
    22  C    0.001085   0.002146   0.000389   4.887856   0.395572   0.395446
    23  H    0.000434  -0.000379  -0.000039   0.395572   0.551770  -0.033075
    24  H   -0.000037  -0.000023  -0.000003   0.395446  -0.033075   0.543109
    25  H   -0.000474   0.004745  -0.000017   0.392558  -0.032184  -0.026353
              25
     1  Mo  -0.007120
     2  O    0.000005
     3  O   -0.000000
     4  O   -0.000007
     5  C   -0.000481
     6  C    0.000002
     7  C    0.000021
     8  C   -0.022417
     9  C    0.005384
    10  H    0.000214
    11  C   -0.000239
    12  H    0.000004
    13  C    0.000025
    14  H    0.000000
    15  C   -0.000020
    16  H    0.000001
    17  C   -0.005858
    18  C    0.002783
    19  H   -0.000474
    20  H    0.004745
    21  H   -0.000017
    22  C    0.392558
    23  H   -0.032184
    24  H   -0.026353
    25  H    0.549889
 Mulliken charges:
               1
     1  Mo  -0.111713
     2  O   -0.282162
     3  O   -0.276265
     4  O   -0.280954
     5  C    0.218874
     6  C    0.227551
     7  C    0.215945
     8  C    0.013029
     9  C   -0.125486
    10  H    0.134955
    11  C   -0.094721
    12  H    0.141735
    13  C   -0.110445
    14  H    0.142812
    15  C   -0.098823
    16  H    0.133972
    17  C   -0.016840
    18  C   -0.345872
    19  H    0.147405
    20  H    0.141637
    21  H    0.143861
    22  C   -0.346923
    23  H    0.146782
    24  H    0.142106
    25  H    0.139540
 Sum of Mulliken charges =  -0.00000
 Mulliken charges with hydrogens summed into heavy atoms:
               1
     1  Mo  -0.111713
     2  O   -0.282162
     3  O   -0.276265
     4  O   -0.280954
     5  C    0.218874
     6  C    0.227551
     7  C    0.215945
     8  C    0.013029
     9  C    0.009469
    11  C    0.047014
    13  C    0.032367
    15  C    0.035149
    17  C   -0.016840
    18  C    0.087031
    22  C    0.081505
 Electronic spatial extent (au):  <R**2>=           2897.9144
 Charge=             -0.0000 electrons
 Dipole moment (field-independent basis, Debye):
    X=              5.9123    Y=             -2.6653    Z=             -0.2765  Tot=              6.4912
 Quadrupole moment (field-independent basis, Debye-Ang):
   XX=           -103.4958   YY=           -100.8102   ZZ=            -99.2588
   XY=              4.1499   XZ=              0.8014   YZ=             -0.0993
 Traceless Quadrupole moment (field-independent basis, Debye-Ang):
   XX=             -2.3075   YY=              0.3781   ZZ=              1.9294
   XY=              4.1499   XZ=              0.8014   YZ=             -0.0993
 Octapole moment (field-independent basis, Debye-Ang**2):
  XXX=             14.2843  YYY=            -15.0293  ZZZ=             -7.7946  XYY=             -3.8543
  XXY=             18.3411  XXZ=              2.2857  XZZ=              9.3477  YZZ=            -14.5325
  YYZ=              3.9064  XYZ=              0.7005
 Hexadecapole moment (field-independent basis, Debye-Ang**3):
 XXXX=          -1773.1088 YYYY=          -1012.0816 ZZZZ=           -942.7433 XXXY=             -4.4097
 XXXZ=             -7.2854 YYYX=             38.6934 YYYZ=             16.5513 ZZZX=             17.1217
 ZZZY=            -10.7792 XXYY=           -476.0926 XXZZ=           -443.0093 YYZZ=           -343.0862
 XXYZ=            -12.0304 YYXZ=             -1.6004 ZZXY=             23.4147
 N-N= 1.081412198095D+03 E-N=-3.819325453659D+03  KE= 6.713383488793D+02
   1 Symmetry operations used in ECPInt.
 ECPInt:  NShTT=    4465 NPrTT=   24826 LenC2=    4230 LenP2D=   15774.
 LDataN:  DoStor=T MaxTD1= 6 Len=  172
 Calling FoFJK, ICntrl=      2527 FMM=F ISym2X=0 I1Cent= 0 IOpClX= 0 NMat=1 NMatS=1 NMatT=0.
 Defaulting to unpruned grid for atomic number  42.
 Defaulting to unpruned grid for atomic number  42.
 Defaulting to unpruned grid for atomic number  42.
 Defaulting to unpruned grid for atomic number  42.
 Defaulting to unpruned grid for atomic number  42.
 Defaulting to unpruned grid for atomic number  42.
 Defaulting to unpruned grid for atomic number  42.
 Defaulting to unpruned grid for atomic number  42.
 ***** Axes restored to original set *****
 -------------------------------------------------------------------
 Center     Atomic                   Forces (Hartrees/Bohr)
 Number     Number              X              Y              Z
 -------------------------------------------------------------------
      1       42          -0.021095107    0.001648325   -0.002367843
      2        8           0.029834605   -0.016892090   -0.038995295
      3        8           0.036382685   -0.031718276    0.039762187
      4        8           0.032198614    0.048771551    0.004777078
      5        6          -0.021103951    0.012793673    0.029844155
      6        6          -0.027791644    0.025843533   -0.031800985
      7        6          -0.022716868   -0.038659005   -0.003079301
      8        6          -0.004821500    0.012143863   -0.004093938
      9        6          -0.003216623    0.042821371    0.054060221
     10        1           0.003183661   -0.063982594   -0.061729436
     11        6          -0.003105146    0.062806173   -0.021823907
     12        1           0.001843083   -0.084115980    0.023175134
     13        6          -0.004737102    0.011677894   -0.065116341
     14        1           0.004160640   -0.021091712    0.086389646
     15        6          -0.006673515   -0.042806605   -0.045076045
     16        1           0.007142072    0.063822745    0.061354023
     17        6          -0.002893352    0.000673758   -0.008893317
     18        6           0.003907784   -0.105719542    0.024612014
     19        1          -0.112319234    0.038504578   -0.012813094
     20        1           0.057609049    0.018436281   -0.099285125
     21        1           0.052249615    0.061069085    0.083835473
     22        6           0.011925890   -0.020071616    0.106361751
     23        1          -0.114347357    0.015174619   -0.031049725
     24        1           0.045536253   -0.087716235   -0.061961368
     25        1           0.058847447    0.096586207   -0.026085964
 -------------------------------------------------------------------
 Cartesian Forces:  Max     0.114347357 RMS     0.047870018

 GradGradGradGradGradGradGradGradGradGradGradGradGradGradGradGradGradGrad
 Berny optimization.
 FormGI is forming the generalized inverse of G from B-inverse, IUseBI=4.
 Internal  Forces:  Max     0.119454816 RMS     0.026529473
 Search for a local minimum.
 Step number   1 out of a maximum of  150
 All quantities printed in internal units (Hartrees-Bohrs-Radians)
 Mixed Optimization -- RFO/linear search
 Second derivative matrix not updated -- first step.
 ITU=  0
     Eigenvalues ---    0.00724   0.00730   0.02053   0.02610   0.02735
     Eigenvalues ---    0.02784   0.03085   0.03165   0.03260   0.03456
     Eigenvalues ---    0.03633   0.03656   0.03962   0.04138   0.04205
     Eigenvalues ---    0.04522   0.04999   0.04999   0.05035   0.05035
     Eigenvalues ---    0.05070   0.05070   0.05534   0.06028   0.06039
     Eigenvalues ---    0.06040   0.06042   0.06044   0.06250   0.07493
     Eigenvalues ---    0.08319   0.08856   0.09326   0.13007   0.13586
     Eigenvalues ---    0.15008   0.16000   0.16000   0.16000   0.16000
     Eigenvalues ---    0.16000   0.16000   0.18560   0.18855   0.20038
     Eigenvalues ---    0.20234   0.20365   0.21110   0.32044   0.32098
     Eigenvalues ---    0.33503   0.33983   0.35662   0.38309   0.39915
     Eigenvalues ---    0.41287   0.49426   0.49515   0.49527   0.49658
     Eigenvalues ---    0.53262   0.53342   0.53368   0.53406   0.53408
     Eigenvalues ---    0.53412   1.34571   1.36518   1.38431
 RFO step:  Lambda=-1.75751162D-01 EMin= 7.23647536D-03
 Linear search not attempted -- first point.
 Maximum step size (   0.300) exceeded in Quadratic search.
    -- Step size scaled by   0.598
 Iteration  1 RMS(Cart)=  0.02616462 RMS(Int)=  0.00008121
 Iteration  2 RMS(Cart)=  0.00009028 RMS(Int)=  0.00000393
 Iteration  3 RMS(Cart)=  0.00000001 RMS(Int)=  0.00000393
 Variable       Old X    -DE/DX   Delta X   Delta X   Delta X     New X
                                 (Linear)    (Quad)   (Total)
    R1        3.70129   0.01327   0.00000   0.02099   0.02099   3.72228
    R2        3.70794   0.01307   0.00000   0.02079   0.02079   3.72872
    R3        3.69691   0.01389   0.00000   0.02190   0.02190   3.71881
    R4        4.53265   0.00457   0.00000   0.00776   0.00775   4.54040
    R5        4.45501   0.00503   0.00000   0.00871   0.00871   4.46372
    R6        4.49063   0.00678   0.00000   0.01139   0.01139   4.50202
    R7        4.47548   0.00615   0.00000   0.01050   0.01050   4.48597
    R8        4.47478   0.00604   0.00000   0.01029   0.01029   4.48507
    R9        4.51624   0.00452   0.00000   0.00763   0.00762   4.52386
   R10        2.17318   0.05186   0.00000   0.02039   0.02039   2.19357
   R11        2.16297   0.06251   0.00000   0.02397   0.02397   2.18694
   R12        2.16798   0.05862   0.00000   0.02276   0.02276   2.19074
   R13        2.66818   0.01854   0.00000   0.02063   0.02063   2.68882
   R14        2.67878   0.00635   0.00000   0.00827   0.00826   2.68704
   R15        2.84063   0.01315   0.00000   0.01585   0.01585   2.85649
   R16        1.87046   0.08876   0.00000   0.07913   0.07913   1.94959
   R17        2.64689   0.00873   0.00000   0.01072   0.01071   2.65760
   R18        1.87149   0.08716   0.00000   0.07782   0.07782   1.94931
   R19        2.66511   0.01385   0.00000   0.01599   0.01599   2.68111
   R20        1.86912   0.08890   0.00000   0.07911   0.07911   1.94823
   R21        2.62375   0.01650   0.00000   0.01847   0.01847   2.64222
   R22        1.87058   0.08862   0.00000   0.07902   0.07902   1.94960
   R23        2.67970   0.01466   0.00000   0.01699   0.01700   2.69670
   R24        2.83966   0.01281   0.00000   0.01543   0.01543   2.85508
   R25        1.83276   0.11943   0.00000   0.10065   0.10065   1.93342
   R26        1.83271   0.11621   0.00000   0.09794   0.09794   1.93065
   R27        1.83410   0.11613   0.00000   0.09808   0.09808   1.93217
   R28        1.83275   0.11945   0.00000   0.10067   0.10067   1.93342
   R29        1.83336   0.11664   0.00000   0.09840   0.09840   1.93175
   R30        1.83312   0.11601   0.00000   0.09783   0.09783   1.93095
    A1        1.50295   0.00160   0.00000   0.00096   0.00096   1.50391
    A2        1.52268   0.00136   0.00000   0.00057   0.00057   1.52325
    A3        1.68732  -0.00308   0.00000  -0.00255  -0.00255   1.68477
    A4        1.64125  -0.00361   0.00000  -0.00289  -0.00288   1.63837
    A5        2.03065  -0.00300   0.00000  -0.00244  -0.00243   2.02821
    A6        2.63162  -0.00079   0.00000  -0.00036  -0.00037   2.63125
    A7        2.74530   0.00056   0.00000   0.00104   0.00104   2.74634
    A8        2.14530  -0.00230   0.00000  -0.00192  -0.00191   2.14338
    A9        1.54197   0.00077   0.00000  -0.00053  -0.00052   1.54145
   A10        2.76414   0.00177   0.00000   0.00233   0.00233   2.76646
   A11        2.16458  -0.00195   0.00000  -0.00144  -0.00144   2.16314
   A12        1.70225  -0.00294   0.00000  -0.00230  -0.00230   1.69996
   A13        1.64496  -0.00359   0.00000  -0.00294  -0.00294   1.64202
   A14        2.03312  -0.00201   0.00000  -0.00179  -0.00179   2.03133
   A15        2.63332   0.00057   0.00000   0.00077   0.00076   2.63408
   A16        1.97511  -0.00243   0.00000  -0.00166  -0.00167   1.97345
   A17        2.57660   0.00116   0.00000   0.00194   0.00193   2.57853
   A18        2.72138   0.00195   0.00000   0.00233   0.00232   2.72370
   A19        2.12888  -0.00056   0.00000  -0.00020  -0.00020   2.12868
   A20        1.66045  -0.00296   0.00000  -0.00236  -0.00236   1.65809
   A21        1.58213  -0.00278   0.00000  -0.00198  -0.00198   1.58014
   A22        1.08171   0.00471   0.00000   0.00467   0.00466   1.08637
   A23        1.27319   0.00535   0.00000   0.00519   0.00519   1.27838
   A24        1.07554   0.00383   0.00000   0.00388   0.00387   1.07941
   A25        1.07713   0.00361   0.00000   0.00335   0.00335   1.08048
   A26        1.25776   0.00547   0.00000   0.00536   0.00536   1.26312
   A27        1.07645   0.00432   0.00000   0.00427   0.00427   1.08071
   A28        1.07035   0.00508   0.00000   0.00497   0.00497   1.07532
   A29        1.27269   0.00552   0.00000   0.00543   0.00543   1.27812
   A30        1.08254   0.00502   0.00000   0.00487   0.00486   1.08740
   A31        2.27652   0.00179   0.00000   0.00097   0.00098   2.27749
   A32        2.07103   0.00010   0.00000  -0.00002  -0.00003   2.07101
   A33        2.07609   0.00059   0.00000   0.00053   0.00053   2.07662
   A34        2.13472  -0.00067   0.00000  -0.00045  -0.00044   2.13428
   A35        2.07558   0.00421   0.00000   0.00750   0.00749   2.08307
   A36        2.07545   0.00091   0.00000   0.00074   0.00074   2.07619
   A37        2.12720   0.00014   0.00000   0.00036   0.00036   2.12756
   A38        2.07481  -0.00088   0.00000  -0.00056  -0.00057   2.07424
   A39        2.09762   0.00458   0.00000   0.00787   0.00786   2.10548
   A40        2.09816  -0.00022   0.00000  -0.00011  -0.00012   2.09804
   A41        2.07957   0.00008   0.00000  -0.00024  -0.00024   2.07933
   A42        2.09699   0.00035   0.00000   0.00100   0.00100   2.09799
   A43        2.09416   0.00449   0.00000   0.00784   0.00783   2.10199
   A44        2.09444   0.00056   0.00000   0.00056   0.00055   2.09499
   A45        2.08833  -0.00007   0.00000   0.00034   0.00034   2.08867
   A46        2.09481  -0.00031   0.00000  -0.00034  -0.00035   2.09446
   A47        2.07485   0.00449   0.00000   0.00790   0.00789   2.08275
   A48        2.07401   0.00070   0.00000   0.00147   0.00145   2.07547
   A49        2.12488  -0.00183   0.00000  -0.00224  -0.00224   2.12264
   A50        2.07489   0.00133   0.00000   0.00144   0.00143   2.07632
   A51        2.24124   0.00211   0.00000   0.00180   0.00180   2.24304
   A52        2.07478   0.00158   0.00000   0.00180   0.00180   2.07658
   A53        2.13037  -0.00095   0.00000  -0.00070  -0.00070   2.12968
   A54        2.07722  -0.00061   0.00000  -0.00110  -0.00109   2.07613
   A55        1.91105  -0.00057   0.00000  -0.00106  -0.00106   1.90999
   A56        1.91058   0.00404   0.00000   0.00733   0.00732   1.91790
   A57        1.91034   0.00049   0.00000   0.00078   0.00078   1.91111
   A58        1.91072  -0.00142   0.00000  -0.00235  -0.00235   1.90837
   A59        1.91077  -0.00041   0.00000  -0.00101  -0.00101   1.90977
   A60        1.91033  -0.00212   0.00000  -0.00369  -0.00370   1.90664
   A61        1.91034  -0.00075   0.00000  -0.00140  -0.00140   1.90895
   A62        1.91027   0.00060   0.00000   0.00097   0.00097   1.91124
   A63        1.91020   0.00464   0.00000   0.00843   0.00842   1.91862
   A64        1.91149  -0.00047   0.00000  -0.00116  -0.00116   1.91033
   A65        1.91058  -0.00163   0.00000  -0.00271  -0.00271   1.90787
   A66        1.91091  -0.00239   0.00000  -0.00413  -0.00414   1.90678
   A67        3.14819  -0.00492   0.00000  -0.01304  -0.01304   3.13515
   A68        3.14612  -0.00357   0.00000  -0.00943  -0.00943   3.13669
   A69        3.09617  -0.00287   0.00000  -0.00759  -0.00759   3.08858
   A70        3.13810   0.00202   0.00000   0.00534   0.00534   3.14344
   A71        3.12819  -0.00019   0.00000  -0.00050  -0.00050   3.12769
   A72        3.13602  -0.00066   0.00000  -0.00174  -0.00174   3.13428
    D1       -0.43604  -0.00084   0.00000  -0.00040  -0.00041  -0.43645
    D2       -2.11712   0.00190   0.00000   0.00256   0.00257  -2.11455
    D3        1.13217  -0.00096   0.00000  -0.00106  -0.00106   1.13111
    D4       -2.46677   0.00155   0.00000   0.00163   0.00162  -2.46514
    D5       -3.08951   0.00044   0.00000   0.00059   0.00058  -3.08893
    D6        2.58223  -0.00128   0.00000  -0.00107  -0.00108   2.58116
    D7        0.32879   0.00023   0.00000  -0.00011  -0.00011   0.32868
    D8       -1.20764   0.00082   0.00000   0.00075   0.00074  -1.20690
    D9        1.92085  -0.00281   0.00000  -0.00339  -0.00340   1.91744
   D10       -2.51363   0.00139   0.00000   0.00101   0.00101  -2.51262
   D11       -3.13295  -0.00021   0.00000  -0.00045  -0.00044  -3.13339
   D12        2.51932  -0.00155   0.00000  -0.00187  -0.00186   2.51746
   D13        1.06085  -0.00096   0.00000  -0.00161  -0.00161   1.05924
   D14       -0.49913  -0.00093   0.00000  -0.00124  -0.00125  -0.50037
   D15       -2.29650   0.00270   0.00000   0.00393   0.00394  -2.29256
   D16        2.51477  -0.00043   0.00000  -0.00078  -0.00079   2.51398
   D17       -2.52606   0.00039   0.00000   0.00016   0.00016  -2.52590
   D18        3.13483  -0.00112   0.00000  -0.00141  -0.00141   3.13341
   D19        1.88192  -0.00307   0.00000  -0.00357  -0.00356   1.87836
   D20        0.31753   0.00010   0.00000  -0.00024  -0.00024   0.31729
   D21       -1.26558   0.00148   0.00000   0.00223   0.00223  -1.26335
   D22       -3.13437   0.00130   0.00000   0.00128   0.00128  -3.13310
   D23        2.52825  -0.00110   0.00000  -0.00116  -0.00116   2.52709
   D24       -2.51437   0.00077   0.00000   0.00081   0.00081  -2.51356
   D25       -2.19545   0.00324   0.00000   0.00457   0.00457  -2.19088
   D26        1.04846  -0.00099   0.00000  -0.00124  -0.00124   1.04723
   D27       -0.53481  -0.00018   0.00000   0.00070   0.00070  -0.53411
   D28       -2.51751   0.00150   0.00000   0.00184   0.00184  -2.51567
   D29        3.13796  -0.00087   0.00000  -0.00061  -0.00060   3.13736
   D30        2.51345  -0.00067   0.00000  -0.00030  -0.00031   2.51314
   D31       -1.26044   0.00049   0.00000   0.00070   0.00070  -1.25975
   D32        1.79226  -0.00309   0.00000  -0.00455  -0.00455   1.78771
   D33        0.26036   0.00036   0.00000   0.00014   0.00014   0.26050
   D34       -2.57479   0.00035   0.00000  -0.00013  -0.00012  -2.57491
   D35        3.08991   0.00070   0.00000   0.00032   0.00033   3.09023
   D36        2.46675  -0.00040   0.00000  -0.00064  -0.00064   2.46611
   D37       -2.99155  -0.00176   0.00000  -0.00566  -0.00566  -2.99721
   D38        0.03387  -0.00017   0.00000  -0.00021  -0.00021   0.03366
   D39        0.20423  -0.00231   0.00000  -0.00683  -0.00683   0.19740
   D40       -3.05354  -0.00072   0.00000  -0.00138  -0.00138  -3.05491
   D41       -0.02321   0.00000   0.00000  -0.00005  -0.00005  -0.02326
   D42       -3.12112  -0.00024   0.00000  -0.00025  -0.00025  -3.12137
   D43        3.06228   0.00062   0.00000   0.00119   0.00119   3.06347
   D44       -0.03563   0.00037   0.00000   0.00099   0.00099  -0.03464
   D45       -3.13528  -0.00046   0.00000  -0.00073  -0.00074  -3.13602
   D46        1.05285   0.00020   0.00000   0.00094   0.00095   1.05380
   D47       -1.04140  -0.00007   0.00000   0.00025   0.00025  -1.04115
   D48        1.59095   0.00014   0.00000   0.00009   0.00009   1.59104
   D49       -0.50410   0.00080   0.00000   0.00177   0.00178  -0.50233
   D50       -2.59836   0.00053   0.00000   0.00108   0.00108  -2.59728
   D51       -1.49438  -0.00046   0.00000  -0.00114  -0.00114  -1.49552
   D52        2.69375   0.00020   0.00000   0.00054   0.00055   2.69430
   D53        0.59950  -0.00007   0.00000  -0.00015  -0.00015   0.59935
   D54       -3.03660  -0.00158   0.00000  -0.00516  -0.00516  -3.04176
   D55       -0.03423   0.00019   0.00000   0.00025   0.00025  -0.03398
   D56       -0.01115   0.00013   0.00000   0.00037   0.00037  -0.01077
   D57        2.99123   0.00190   0.00000   0.00578   0.00578   2.99700
   D58       -3.00400  -0.00179   0.00000  -0.00558  -0.00558  -3.00958
   D59        0.02402   0.00001   0.00000   0.00004   0.00004   0.02405
   D60       -0.00153  -0.00007   0.00000  -0.00027  -0.00027  -0.00180
   D61        3.02649   0.00173   0.00000   0.00535   0.00535   3.03184
   D62       -3.00766  -0.00179   0.00000  -0.00561  -0.00561  -3.01327
   D63       -0.01469  -0.00014   0.00000  -0.00028  -0.00028  -0.01497
   D64        0.02034   0.00006   0.00000   0.00007   0.00006   0.02040
   D65        3.01330   0.00171   0.00000   0.00539   0.00540   3.01870
   D66        0.01438   0.00018   0.00000   0.00032   0.00032   0.01470
   D67        3.11364   0.00040   0.00000   0.00052   0.00052   3.11416
   D68        3.00727   0.00177   0.00000   0.00566   0.00566   3.01293
   D69       -0.17665   0.00200   0.00000   0.00586   0.00586  -0.17080
   D70        3.14146   0.00032   0.00000   0.00057   0.00057  -3.14116
   D71        1.04673  -0.00006   0.00000  -0.00039  -0.00039   1.04634
   D72       -1.04709  -0.00023   0.00000  -0.00083  -0.00083  -1.04792
   D73        1.51131   0.00030   0.00000   0.00052   0.00052   1.51183
   D74       -0.58342  -0.00008   0.00000  -0.00044  -0.00044  -0.58386
   D75       -2.67724  -0.00026   0.00000  -0.00088  -0.00089  -2.67812
   D76       -1.58654   0.00000   0.00000   0.00025   0.00025  -1.58629
   D77        2.60192  -0.00038   0.00000  -0.00071  -0.00071   2.60120
   D78        0.50810  -0.00055   0.00000  -0.00115  -0.00116   0.50694
         Item               Value     Threshold  Converged?
 Maximum Force            0.119455     0.000450     NO 
 RMS     Force            0.026529     0.000300     NO 
 Maximum Displacement     0.100694     0.001800     NO 
 RMS     Displacement     0.026175     0.001200     NO 
 Predicted change in Energy=-8.164012D-02
 GradGradGradGradGradGradGradGradGradGradGradGradGradGradGradGradGradGrad

                          Input orientation:                          
 ---------------------------------------------------------------------
 Center     Atomic      Atomic             Coordinates (Angstroms)
 Number     Number       Type             X           Y           Z
 ---------------------------------------------------------------------
      1         42           0        0.337204   -1.827144    3.038385
      2          8           0        2.228322   -2.831545    0.754748
      3          8           0        2.215735   -3.383608    4.999950
      4          8           0        2.177169    0.685818    3.307422
      5          6           0        1.530832   -2.459236    1.604643
      6          6           0        1.526580   -2.799956    4.276272
      7          6           0        1.526197   -0.268757    3.212712
      8          6           0       -1.570047   -1.404438    1.639608
      9          6           0       -1.597775   -2.763662    2.059455
     10          1           0       -1.497005   -3.507277    1.351467
     11          6           0       -1.626604   -3.120981    3.419342
     12          1           0       -1.557462   -4.111985    3.697163
     13          6           0       -1.586047   -2.099391    4.403034
     14          1           0       -1.488819   -2.345966    5.399339
     15          6           0       -1.547590   -0.758836    4.007552
     16          1           0       -1.402930   -0.031193    4.724475
     17          6           0       -1.529763   -0.385323    2.630386
     18          6           0       -1.524349    1.082037    2.270553
     19          1           0       -2.487577    1.409627    2.162617
     20          1           0       -1.018751    1.223076    1.394048
     21          1           0       -1.065582    1.613942    3.013544
     22          6           0       -1.654386   -1.092110    0.163047
     23          1           0       -2.634398   -0.963720   -0.101284
     24          1           0       -1.255798   -1.866009   -0.372845
     25          1           0       -1.134155   -0.236962   -0.042333
 ---------------------------------------------------------------------
                    Distance matrix (angstroms):
                    1          2          3          4          5
     1  Mo   0.000000
     2  O    3.130519   0.000000
     3  O    3.130367   4.280966   0.000000
     4  O    3.126153   4.346332   4.407535   0.000000
     5  C    1.969748   1.160787   3.584922   3.634360   0.000000
     6  C    1.973156   3.590901   1.157278   3.675943   2.693271
     7  C    1.967909   3.619731   3.656771   1.159288   2.717371
     8  C    2.402678   4.152978   5.435178   4.603520   3.275557
     9  C    2.362099   4.043004   4.855276   5.263699   3.176116
    10  H    3.005471   3.832851   5.206837   5.908245   3.214076
    11  C    2.382369   4.695134   4.163035   5.382651   3.701411
    12  H    3.040435   4.962811   4.057684   6.092477   4.080170
    13  C    2.373874   5.328738   4.056978   4.808279   4.204215
    14  H    3.029462   5.968681   3.867807   5.196855   4.850860
    15  C    2.373397   5.397626   4.694347   4.055988   4.259344
    16  H    3.016024   6.065203   4.940578   3.916535   4.922977
    17  C    2.393924   4.860578   5.351009   3.917533   3.836731
    18  C    3.538118   5.629949   6.432714   3.864366   4.724212
    19  H    4.384409   6.496872   7.290178   4.857400   5.605983
    20  H    3.721062   5.233751   6.684756   3.763449   4.483765
    21  H    3.716113   5.976146   6.299869   3.385737   5.031615
    22  C    3.574112   4.295483   6.604879   5.265827   3.754044
    23  H    4.408337   5.278978   7.443268   6.123024   4.742984
    24  H    3.765057   3.787192   6.574312   5.642823   3.468095
    25  H    3.766218   4.321279   6.822592   4.799713   3.840988
                    6          7          8          9         10
     6  C    0.000000
     7  C    2.745565   0.000000
     8  C    4.299834   3.653923   0.000000
     9  C    3.831082   4.160980   1.422860   0.000000
    10  H    4.265777   4.805413   2.123745   1.031681   0.000000
    11  C    3.283285   4.256528   2.473291   1.406343   2.107635
    12  H    3.401192   4.951166   3.400662   2.121719   2.423142
    13  C    3.193010   3.801862   2.849515   2.435930   3.361864
    14  H    3.249618   4.264558   3.876680   3.367665   4.211173
    15  C    3.699852   3.212493   2.454478   2.795877   3.822470
    16  H    4.055732   3.304791   3.380847   3.821869   4.844501
    17  C    4.228549   3.113130   1.421920   2.446851   3.373915
    18  C    5.329254   3.466719   2.565684   3.852187   4.680520
    19  H    6.188828   4.475495   3.005721   4.268340   5.080860
    20  H    5.565134   3.465525   2.695933   4.083150   4.754659
    21  H    5.272218   3.209602   3.354519   4.511865   5.401436
    22  C    5.473016   4.482686   1.511587   2.528567   2.696320
    23  H    6.312567   5.364335   2.087530   2.997193   3.142265
    24  H    5.498016   4.811126   2.088485   2.615112   2.392738
    25  H    5.683203   4.204022   2.093306   3.319137   3.573416
                   11         12         13         14         15
    11  C    0.000000
    12  H    1.031530   0.000000
    13  C    1.418781   2.132980   0.000000
    14  H    2.130733   2.453760   1.030959   0.000000
    15  C    2.435562   3.367498   1.398203   2.111754   0.000000
    16  H    3.361576   4.210952   2.101024   2.412673   1.031683
    17  C    2.848798   3.876440   2.466471   3.393066   1.427031
    18  C    4.358386   5.386481   3.830504   4.641311   2.531110
    19  H    4.779857   5.805871   4.259745   5.057506   2.998265
    20  H    4.831370   5.835874   4.518253   5.385293   3.322357
    21  H    4.785280   5.787531   3.998801   4.642415   2.617338
    22  C    3.836736   4.649625   4.358529   5.386866   3.860401
    23  H    4.250203   5.049709   4.762107   5.786174   4.255075
    24  H    4.011625   4.658367   4.792969   5.796790   4.527566
    25  H    4.532468   5.401743   4.840882   5.846835   4.104248
                   16         17         18         19         20
    16  H    0.000000
    17  C    2.127605   0.000000
    18  C    2.697360   1.510846   0.000000
    19  H    3.132975   2.087597   1.023120   0.000000
    20  H    3.579459   2.092036   1.021657   1.668218   0.000000
    21  H    2.397406   2.087902   1.022461   1.669698   1.666654
    22  C    4.689925   2.569599   3.030743   3.309256   2.698052
[...]
     16          1           0        1.069279   -1.183463   -2.498006
     17          6           0        1.831422   -0.176915   -0.714162
     18          6           0        2.629253    0.827267   -1.517141
     19          1           0        3.689581    0.536937   -1.546794
     20          1           0        2.567037    1.832422   -1.088410
     21          1           0        2.258940    0.876448   -2.546466
     22          6           0        2.629913    0.828304    1.515728
     23          1           0        3.690184    0.537756    1.545467
     24          1           0        2.259784    0.878448    2.545075
     25          1           0        2.567874    1.833116    1.086166
 ---------------------------------------------------------------------
 Rotational constants (GHZ):           0.6632714           0.4866498           0.4754079

 **********************************************************************

            Population analysis using the SCF Density.

 **********************************************************************

 Orbital symmetries:
       Occupied  (A) (A) (A) (A) (A) (A) (A) (A) (A) (A) (A) (A)
                 (A) (A) (A) (A) (A) (A) (A) (A) (A) (A) (A) (A)
                 (A) (A) (A) (A) (A) (A) (A) (A) (A) (A) (A) (A)
                 (A) (A) (A) (A) (A) (A) (A) (A) (A) (A) (A) (A)
                 (A) (A) (A) (A) (A) (A) (A) (A) (A)
       Virtual   (A) (A) (A) (A) (A) (A) (A) (A) (A) (A) (A) (A)
                 (A) (A) (A) (A) (A) (A) (A) (A) (A) (A) (A) (A)
                 (A) (A) (A) (A) (A) (A) (A) (A) (A) (A) (A) (A)
                 (A) (A) (A) (A) (A) (A) (A) (A) (A) (A) (A) (A)
                 (A) (A) (A) (A) (A) (A) (A) (A) (A) (A) (A) (A)
                 (A) (A) (A) (A) (A) (A) (A) (A) (A) (A) (A) (A)
                 (A) (A) (A) (A) (A) (A) (A) (A) (A) (A) (A) (A)
                 (A) (A) (A) (A) (A) (A) (A) (A) (A) (A) (A) (A)
                 (A) (A) (A) (A) (A) (A) (A) (A) (A) (A) (A) (A)
                 (A) (A) (A) (A) (A) (A) (A) (A) (A) (A) (A) (A)
                 (A) (A) (A) (A) (A) (A) (A) (A) (A) (A) (A) (A)
                 (A) (A) (A) (A) (A) (A) (A) (A) (A) (A) (A) (A)
                 (A) (A) (A) (A) (A) (A) (A) (A) (A) (A) (A) (A)
                 (A) (A) (A) (A) (A) (A) (A) (A) (A) (A) (A) (A)
                 (A) (A) (A) (A) (A) (A) (A) (A) (A) (A) (A) (A)
                 (A) (A) (A) (A) (A) (A) (A) (A) (A) (A) (A) (A)
                 (A) (A) (A) (A) (A) (A) (A) (A) (A) (A) (A) (A)
                 (A) (A) (A) (A) (A) (A) (A)
 The electronic state is 1-A.
 Alpha  occ. eigenvalues --  -18.94570 -18.94569 -18.94484 -10.07587 -10.07585
 Alpha  occ. eigenvalues --  -10.07529 -10.05389 -10.05362 -10.04754 -10.04730
 Alpha  occ. eigenvalues --  -10.04625 -10.04621 -10.01952 -10.01949  -2.34120
 Alpha  occ. eigenvalues --   -1.41023  -1.39374  -1.39372  -1.01254  -1.01218
 Alpha  occ. eigenvalues --   -1.01167  -0.83725  -0.75573  -0.74240  -0.67669
 Alpha  occ. eigenvalues --   -0.65262  -0.58432  -0.55972  -0.49527  -0.49106
 Alpha  occ. eigenvalues --   -0.47744  -0.47598  -0.45509  -0.44236  -0.42332
 Alpha  occ. eigenvalues --   -0.41459  -0.40148  -0.38991  -0.38372  -0.37439
 Alpha  occ. eigenvalues --   -0.37404  -0.37280  -0.37084  -0.36884  -0.36607
 Alpha  occ. eigenvalues --   -0.36588  -0.35843  -0.35364  -0.35305  -0.33783
 Alpha  occ. eigenvalues --   -0.33366  -0.33020  -0.28527  -0.27566  -0.18485
 Alpha  occ. eigenvalues --   -0.18226  -0.18083
 Alpha virt. eigenvalues --   -0.06806  -0.06663  -0.03246  -0.03080  -0.00636
 Alpha virt. eigenvalues --   -0.00489   0.00700   0.00933   0.02828   0.03214
 Alpha virt. eigenvalues --    0.03362   0.03834   0.03902   0.05564   0.05818
 Alpha virt. eigenvalues --    0.09997   0.10487   0.12126   0.12313   0.12641
 Alpha virt. eigenvalues --    0.14064   0.15539   0.15577   0.16668   0.17221
 Alpha virt. eigenvalues --    0.17898   0.20228   0.24456   0.24877   0.24911
 Alpha virt. eigenvalues --    0.25529   0.26941   0.28352   0.28701   0.29496
 Alpha virt. eigenvalues --    0.30600   0.37519   0.40784   0.41938   0.43662
 Alpha virt. eigenvalues --    0.43939   0.44420   0.45936   0.46170   0.48263
 Alpha virt. eigenvalues --    0.49956   0.51613   0.52207   0.53196   0.56012
 Alpha virt. eigenvalues --    0.58381   0.60256   0.60530   0.63029   0.64822
 Alpha virt. eigenvalues --    0.64993   0.66390   0.66644   0.67708   0.68394
 Alpha virt. eigenvalues --    0.70291   0.71011   0.72885   0.74173   0.74527
 Alpha virt. eigenvalues --    0.75528   0.75641   0.76408   0.77005   0.77225
 Alpha virt. eigenvalues --    0.79059   0.79608   0.79964   0.81528   0.81995
 Alpha virt. eigenvalues --    0.85362   0.85651   0.87487   0.87666   0.87713
 Alpha virt. eigenvalues --    0.88219   0.88318   0.93906   0.95654   0.95941
 Alpha virt. eigenvalues --    0.96963   1.00643   1.01022   1.01481   1.01987
 Alpha virt. eigenvalues --    1.06405   1.07440   1.09139   1.10431   1.13066
 Alpha virt. eigenvalues --    1.16803   1.18316   1.20391   1.20697   1.23013
 Alpha virt. eigenvalues --    1.24025   1.27272   1.27361   1.31604   1.31971
 Alpha virt. eigenvalues --    1.34063   1.36604   1.38541   1.44358   1.45301
 Alpha virt. eigenvalues --    1.46500   1.48556   1.49359   1.49484   1.50132
 Alpha virt. eigenvalues --    1.50851   1.53213   1.53411   1.54519   1.58194
 Alpha virt. eigenvalues --    1.59883   1.61634   1.61806   1.67004   1.67727
 Alpha virt. eigenvalues --    1.68899   1.73281   1.76385   1.77402   1.78226
 Alpha virt. eigenvalues --    1.79363   1.81986   1.82232   1.82313   1.84024
 Alpha virt. eigenvalues --    1.86048   1.87929   1.88594   1.89302   1.93364
 Alpha virt. eigenvalues --    1.94228   1.95148   1.95324   1.99454   2.00290
 Alpha virt. eigenvalues --    2.01240   2.01821   2.03491   2.04038   2.05583
 Alpha virt. eigenvalues --    2.06251   2.08393   2.09335   2.10109   2.11791
 Alpha virt. eigenvalues --    2.12086   2.17966   2.21878   2.22154   2.26806
 Alpha virt. eigenvalues --    2.28777   2.33613   2.35710   2.36692   2.38267
 Alpha virt. eigenvalues --    2.39713   2.39872   2.40952   2.43218   2.44189
 Alpha virt. eigenvalues --    2.49011   2.49195   2.51104   2.51808   2.52099
 Alpha virt. eigenvalues --    2.54235   2.54500   2.56172   2.56881   2.57176
 Alpha virt. eigenvalues --    2.57785   2.58662   2.58817   2.65202   2.67207
 Alpha virt. eigenvalues --    2.68971   2.69689   2.73339   2.78976   2.83251
 Alpha virt. eigenvalues --    2.83826   2.83840   2.86672   2.96833   2.98996
 Alpha virt. eigenvalues --    3.01000   3.02122   3.05524   3.10576   3.19732
 Alpha virt. eigenvalues --    3.20531   3.24786   3.25200   3.31635   3.41325
 Alpha virt. eigenvalues --    3.43369   3.44401   3.44915   3.47998   3.77259
 Alpha virt. eigenvalues --   17.17481
          Condensed to atoms (all electrons):
               1          2          3          4          5          6
     1  Mo  13.188052  -0.009134  -0.007808  -0.009137   0.230539   0.228686
     2  O   -0.009134   7.742688   0.000029   0.000030   0.562462  -0.001153
     3  O   -0.007808   0.000029   7.738298   0.000029  -0.001306   0.563296
     4  O   -0.009137   0.000030   0.000029   7.742704  -0.001336  -0.001155
     5  C    0.230539   0.562462  -0.001306  -0.001336   5.005378  -0.010061
     6  C    0.228686  -0.001153   0.563296  -0.001155  -0.010061   4.996095
     7  C    0.230519  -0.001336  -0.001308   0.562461  -0.008268  -0.010068
     8  C    0.044242  -0.000669   0.000004   0.000032   0.006484  -0.002165
     9  C    0.034417  -0.000519   0.000014   0.000004   0.010216  -0.000052
    10  H   -0.005206   0.000053   0.000001  -0.000000  -0.001123  -0.000125
    11  C    0.042480   0.000023  -0.000432   0.000003  -0.000261   0.009969
    12  H   -0.003875   0.000001   0.000044  -0.000000  -0.000158  -0.000896
    13  C    0.042724   0.000003  -0.000434   0.000023  -0.002004   0.009995
    14  H   -0.003871  -0.000000   0.000045   0.000001   0.000007  -0.000898
    15  C    0.034176   0.000004   0.000014  -0.000515  -0.002081  -0.000041
    16  H   -0.005210  -0.000000   0.000001   0.000053   0.000005  -0.000126
    17  C    0.044505   0.000032   0.000004  -0.000672   0.000146  -0.002163
    18  C   -0.006697   0.000002   0.000000   0.000179  -0.000104   0.000015
    19  H    0.004544  -0.000000  -0.000000  -0.000003   0.000002  -0.000000
    20  H   -0.007366  -0.000004  -0.000000   0.000067  -0.000023   0.000003
    21  H   -0.002361   0.000000  -0.000000   0.000224  -0.000013   0.000001
    22  C   -0.006702   0.000177   0.000000   0.000002  -0.000825   0.000015
    23  H    0.004542  -0.000003  -0.000000  -0.000000   0.000125  -0.000000
    24  H   -0.002365   0.000224  -0.000000   0.000000   0.000403   0.000001
    25  H   -0.007368   0.000066  -0.000000  -0.000004  -0.000704   0.000003
               7          8          9         10         11         12
     1  Mo   0.230519   0.044242   0.034417  -0.005206   0.042480  -0.003875
     2  O   -0.001336  -0.000669  -0.000519   0.000053   0.000023   0.000001
     3  O   -0.001308   0.000004   0.000014   0.000001  -0.000432   0.000044
     4  O    0.562461   0.000032   0.000004  -0.000000   0.000003  -0.000000
     5  C   -0.008268   0.006484   0.010216  -0.001123  -0.000261  -0.000158
     6  C   -0.010068  -0.002165  -0.000052  -0.000125   0.009969  -0.000896
     7  C    5.005413   0.000157  -0.002080   0.000004  -0.002006   0.000007
     8  C    0.000157   4.935870   0.418042  -0.036271  -0.046473   0.003666
     9  C   -0.002080   0.418042   5.050063   0.386753   0.447160  -0.032713
    10  H    0.000004  -0.036271   0.386753   0.544912  -0.037811  -0.004674
    11  C   -0.002006  -0.046473   0.447160  -0.037811   4.990924   0.386370
    12  H    0.000007   0.003666  -0.032713  -0.004674   0.386370   0.532184
    13  C   -0.000271  -0.025079  -0.048703   0.004388   0.426561  -0.035561
    14  H   -0.000157   0.000270   0.003789  -0.000096  -0.035554  -0.004044
    15  C    0.010185  -0.048674  -0.033682  -0.000093  -0.048755   0.003790
    16  H   -0.001121   0.004656  -0.000094   0.000014   0.004388  -0.000096
    17  C    0.006504   0.460305  -0.048655   0.004655  -0.025062   0.000269
    18  C   -0.000828  -0.055625   0.006556  -0.000074  -0.000539   0.000008
    19  H    0.000125  -0.004189  -0.000219  -0.000003   0.000037  -0.000000
    20  H   -0.000705  -0.004191   0.000021   0.000001   0.000013   0.000000
    21  H    0.000401   0.003955  -0.000152   0.000002   0.000011   0.000000
    22  C   -0.000105   0.377948  -0.055247  -0.007676   0.006317  -0.000094
    23  H    0.000002  -0.031017  -0.000524   0.000173  -0.000236  -0.000000
    24  H   -0.000013  -0.027440  -0.004161   0.004628   0.000178  -0.000006
    25  H   -0.000023  -0.024210   0.003427   0.000073  -0.000151   0.000002
              13         14         15         16         17         18
     1  Mo   0.042724  -0.003871   0.034176  -0.005210   0.044505  -0.006697
     2  O    0.000003  -0.000000   0.000004  -0.000000   0.000032   0.000002
     3  O   -0.000434   0.000045   0.000014   0.000001   0.000004   0.000000
     4  O    0.000023   0.000001  -0.000515   0.000053  -0.000672   0.000179
     5  C   -0.002004   0.000007  -0.002081   0.000005   0.000146  -0.000104
     6  C    0.009995  -0.000898  -0.000041  -0.000126  -0.002163   0.000015
     7  C   -0.000271  -0.000157   0.010185  -0.001121   0.006504  -0.000828
     8  C   -0.025079   0.000270  -0.048674   0.004656   0.460305  -0.055625
     9  C   -0.048703   0.003789  -0.033682  -0.000094  -0.048655   0.006556
    10  H    0.004388  -0.000096  -0.000093   0.000014   0.004655  -0.000074
    11  C    0.426561  -0.035554  -0.048755   0.004388  -0.025062  -0.000539
    12  H   -0.035561  -0.004044   0.003790  -0.000096   0.000269   0.000008
    13  C    4.991025   0.386352   0.447151  -0.037817  -0.046452   0.006318
    14  H    0.386352   0.532180  -0.032706  -0.004674   0.003665  -0.000095
    15  C    0.447151  -0.032706   5.049995   0.386771   0.418097  -0.055239
    16  H   -0.037817  -0.004674   0.386771   0.544914  -0.036276  -0.007677
    17  C   -0.046452   0.003665   0.418097  -0.036276   4.935861   0.377893
    18  C    0.006318  -0.000095  -0.055239  -0.007677   0.377893   5.005361
    19  H   -0.000236  -0.000000  -0.000525   0.000172  -0.031007   0.375016
    20  H   -0.000151   0.000002   0.003427   0.000073  -0.024207   0.378640
    21  H    0.000178  -0.000006  -0.004160   0.004628  -0.027439   0.380172
    22  C   -0.000540   0.000008   0.006554  -0.000074  -0.055617  -0.013389
    23  H    0.000037  -0.000000  -0.000219  -0.000003  -0.004185   0.001106
    24  H    0.000011   0.000000  -0.000152   0.000002   0.003954   0.000234
    25  H    0.000013   0.000000   0.000021   0.000001  -0.004196   0.001514
              19         20         21         22         23         24
     1  Mo   0.004544  -0.007366  -0.002361  -0.006702   0.004542  -0.002365
     2  O   -0.000000  -0.000004   0.000000   0.000177  -0.000003   0.000224
     3  O   -0.000000  -0.000000  -0.000000   0.000000  -0.000000  -0.000000
     4  O   -0.000003   0.000067   0.000224   0.000002  -0.000000   0.000000
     5  C    0.000002  -0.000023  -0.000013  -0.000825   0.000125   0.000403
     6  C   -0.000000   0.000003   0.000001   0.000015  -0.000000   0.000001
     7  C    0.000125  -0.000705   0.000401  -0.000105   0.000002  -0.000013
     8  C   -0.004189  -0.004191   0.003955   0.377948  -0.031017  -0.027440
     9  C   -0.000219   0.000021  -0.000152  -0.055247  -0.000524  -0.004161
    10  H   -0.000003   0.000001   0.000002  -0.007676   0.000173   0.004628
    11  C    0.000037   0.000013   0.000011   0.006317  -0.000236   0.000178
    12  H   -0.000000   0.000000   0.000000  -0.000094  -0.000000  -0.000006
    13  C   -0.000236  -0.000151   0.000178  -0.000540   0.000037   0.000011
    14  H   -0.000000   0.000002  -0.000006   0.000008  -0.000000   0.000000
    15  C   -0.000525   0.003427  -0.004160   0.006554  -0.000219  -0.000152
    16  H    0.000172   0.000073   0.004628  -0.000074  -0.000003   0.000002
    17  C   -0.031007  -0.024207  -0.027439  -0.055617  -0.004185   0.003954
    18  C    0.375016   0.378640   0.380172  -0.013389   0.001106   0.000234
    19  H    0.572874  -0.029592  -0.029088   0.001107   0.000952  -0.000031
    20  H   -0.029592   0.555217  -0.024641   0.001509  -0.000540   0.000029
    21  H   -0.029088  -0.024641   0.554792   0.000234  -0.000031  -0.000003
    22  C    0.001107   0.001509   0.000234   5.005321   0.375010   0.380174
    23  H    0.000952  -0.000540  -0.000031   0.375010   0.572916  -0.029095
    24  H   -0.000031   0.000029  -0.000003   0.380174  -0.029095   0.554804
    25  H   -0.000541   0.004692   0.000029   0.378641  -0.029597  -0.024641
              25
     1  Mo  -0.007368
     2  O    0.000066
     3  O   -0.000000
     4  O   -0.000004
     5  C   -0.000704
     6  C    0.000003
     7  C   -0.000023
     8  C   -0.024210
     9  C    0.003427
    10  H    0.000073
    11  C   -0.000151
    12  H    0.000002
    13  C    0.000013
    14  H    0.000000
    15  C    0.000021
    16  H    0.000001
    17  C   -0.004196
    18  C    0.001514
    19  H   -0.000541
    20  H    0.004692
    21  H    0.000029
    22  C    0.378641
    23  H   -0.029597
    24  H   -0.024641
    25  H    0.555247
 Mulliken charges:
               1
     1  Mo  -0.052325
     2  O   -0.292974
     3  O   -0.290489
     4  O   -0.292988
     5  C    0.212502
     6  C    0.220825
     7  C    0.212511
     8  C    0.050374
     9  C   -0.133659
    10  H    0.147496
    11  C   -0.117155
    12  H    0.155778
    13  C   -0.117529
    14  H    0.155782
    15  C   -0.133341
    16  H    0.147491
    17  C    0.050041
    18  C   -0.392746
    19  H    0.140604
    20  H    0.147726
    21  H    0.143268
    22  C   -0.392747
    23  H    0.140588
    24  H    0.143265
    25  H    0.147703
 Sum of Mulliken charges =  -0.00000
 Mulliken charges with hydrogens summed into heavy atoms:
               1
     1  Mo  -0.052325
     2  O   -0.292974
     3  O   -0.290489
     4  O   -0.292988
     5  C    0.212502
     6  C    0.220825
     7  C    0.212511
     8  C    0.050374
     9  C    0.013837
    11  C    0.038623
    13  C    0.038253
    15  C    0.014150
    17  C    0.050041
    18  C    0.038851
    22  C    0.038809
 Electronic spatial extent (au):  <R**2>=           2970.8369
 Charge=             -0.0000 electrons
 Dipole moment (field-independent basis, Debye):
    X=              5.8053    Y=             -3.1426    Z=              0.0002  Tot=              6.6013
 Quadrupole moment (field-independent basis, Debye-Ang):
   XX=           -104.9363   YY=           -101.5980   ZZ=           -100.6056
   XY=              3.8844   XZ=             -0.0019   YZ=             -0.0007
 Traceless Quadrupole moment (field-independent basis, Debye-Ang):
   XX=             -2.5564   YY=              0.7820   ZZ=              1.7744
   XY=              3.8844   XZ=             -0.0019   YZ=             -0.0007
 Octapole moment (field-independent basis, Debye-Ang**2):
  XXX=             12.5500  YYY=            -16.5842  ZZZ=             -0.0241  XYY=             -6.6472
  XXY=             19.4047  XXZ=              0.0100  XZZ=              7.0295  YZZ=            -20.3051
  YYZ=              0.0163  XYZ=              0.0133
 Hexadecapole moment (field-independent basis, Debye-Ang**3):
 XXXX=          -1816.4217 YYYY=          -1049.3213 ZZZZ=          -1005.9324 XXXY=            -16.1277
 XXXZ=             -0.0863 YYYX=             40.9998 YYYZ=              0.0653 ZZZX=              0.0627
 ZZZY=             -0.0403 XXYY=           -491.3067 XXZZ=           -454.1155 YYZZ=           -371.9471
 XXYZ=             -0.0412 YYXZ=             -0.0098 ZZXY=             22.0933
 N-N= 1.063049106558D+03 E-N=-3.780782822614D+03  KE= 6.686919338727D+02
 Unable to Open any file for archive entry.
 1\1\GINC-CEDAR1\FOpt\RTPSSTPSS\Gen\C11H10Mo1O3\GAMEELKA\25-Mar-2024\0\
 \#n TPSSTPSS/Gen Pseudo=Read EmpiricalDispersion=GD3 opt\\Title\\0,1\M
 o,0.3599659315,-1.8119984869,3.0509807993\O,2.1013552783,-2.5852849678
 ,0.5320472429\O,2.23695941,-3.5665583897,4.8940655461\O,2.2106031659,0
 .6985995415,3.5484570442\C,1.4930292919,-2.2985018244,1.4935318297\C,1
 .5638713349,-2.9052577091,4.1981258647\C,1.5607234323,-0.2609802535,3.
 3650899858\C,-1.5545408978,-1.4337142592,1.6545249681\C,-1.5857835013,
 -2.8029752162,2.1131479968\H,-1.5918706044,-3.6007790104,1.3744370947\
 C,-1.5850164896,-3.1258880112,3.4884883071\H,-1.5903508735,-4.16442686
 87,3.8065308469\C,-1.5500203172,-2.0709128894,4.4598475341\H,-1.528666
 9574,-2.3026635734,5.5207835387\C,-1.5173346357,-0.7273627737,4.024346
 7722\H,-1.470490208,0.0737954659,4.7579449484\C,-1.5197534562,-0.38362
 83568,2.6214905728\C,-1.535773048,1.0758035864,2.222128328\H,-2.557170
 5999,1.3895543719,1.9617930054\H,-0.8935139634,1.2677949624,1.35687639
 02\H,-1.1849777125,1.7033930816,3.0480413892\C,-1.609780205,-1.1546199
 758,0.1683432838\H,-2.6327141069,-0.8847032164,-0.1320381688\H,-1.3088
 526838,-2.0409864628,-0.3998659572\H,-0.9468975839,-0.3312987644,-0.11
 58191629\\Version=ES64L-G16RevC.01\State=1-A\HF=-718.6290182\RMSD=3.29
 1e-09\RMSF=7.173e-06\Dipole=-2.5682088,0.3044138,-0.2382939\Quadrupole
 =-3.776453,1.8325876,1.9438654,0.3504413,-0.1982226,-0.5693833\PG=C01 
 [X(C11H10Mo1O3)]\\@
 The archive entry for this job was punched.


 THERE ARE PEOPLE SO ADDICTED TO EXAGERATING THEY
 CAN'T TELL THE TRUTH WITHOUT LYING. -- FORTUNE COOKIE
 Job cpu time:       0 days  4 hours  8 minutes 14.0 seconds.
 Elapsed time:       0 days  0 hours 31 minutes 19.1 seconds.
 File lengths (MBytes):  RWF=     49 Int=      0 D2E=      0 Chk=      7 Scr=      1
 Normal termination of Gaussian 16 at Mon Mar 25 08:54:07 2024.
