 Entering Gaussian System, Link 0=g16
 Input=pd-full.inp
 Output=pd-full.log
 Initial command:
 /opt/software/gaussian/g16.c01/l1.exe "/scratch/gameelka/Gau-46044.inp" -scrdir="/scratch/gameelka/"
 Entering Link 1 = /opt/software/gaussian/g16.c01/l1.exe PID=     46045.
  
 Copyright (c) 1988-2019, Gaussian, Inc.  All Rights Reserved.
  
 This is part of the Gaussian(R) 16 program.  It is based on
 the Gaussian(R) 09 system (copyright 2009, Gaussian, Inc.),
 the Gaussian(R) 03 system (copyright 2003, Gaussian, Inc.),
 the Gaussian(R) 98 system (copyright 1998, Gaussian, Inc.),
 the Gaussian(R) 94 system (copyright 1995, Gaussian, Inc.),
 the Gaussian 92(TM) system (copyright 1992, Gaussian, Inc.),
 the Gaussian 90(TM) system (copyright 1990, Gaussian, Inc.),
 the Gaussian 88(TM) system (copyright 1988, Gaussian, Inc.),
 the Gaussian 86(TM) system (copyright 1986, Carnegie Mellon
 University), and the Gaussian 82(TM) system (copyright 1983,
 Carnegie Mellon University). Gaussian is a federally registered
 trademark of Gaussian, Inc.
  
 This software contains proprietary and confidential information,
 including trade secrets, belonging to Gaussian, Inc.
  
 This software is provided under written license and may be
 used, copied, transmitted, or stored only in accord with that
 written license.
  
 The following legend is applicable only to US Government
 contracts under FAR:
  
                    RESTRICTED RIGHTS LEGEND
  
 Use, reproduction and disclosure by the US Government is
 subject to restrictions as set forth in subparagraphs (a)
 and (c) of the Commercial Computer Software - Restricted
 Rights clause in FAR 52.227-19.
  
 Gaussian, Inc.
 340 Quinnipiac St., Bldg. 40, Wallingford CT 06492
  
  
 ---------------------------------------------------------------
 Warning -- This program may not be used in any manner that
 competes with the business of Gaussian, Inc. or will provide
 assistance to any competitor of Gaussian, Inc.  The licensee
 of this program is prohibited from giving any competitor of
 Gaussian, Inc. access to this program.  By using this program,
 the user acknowledges that Gaussian, Inc. is engaged in the
 business of creating and licensing software in the field of
 computational chemistry and represents and warrants to the
 licensee that it is not a competitor of Gaussian, Inc. and that
 it will not use this program in any manner prohibited above.
 ---------------------------------------------------------------
  

 Cite this work as:
 Gaussian 16, Revision C.01,
 M. J. Frisch, G. W. Trucks, H. B. Schlegel, G. E. Scuseria, 
 M. A. Robb, J. R. Cheeseman, G. Scalmani, V. Barone, 
 G. A. Petersson, H. Nakatsuji, X. Li, M. Caricato, A. V. Marenich, 
 J. Bloino, B. G. Janesko, R. Gomperts, B. Mennucci, H. P. Hratchian, 
 J. V. Ortiz, A. F. Izmaylov, J. L. Sonnenberg, D. Williams-Young, 
 F. Ding, F. Lipparini, F. Egidi, J. Goings, B. Peng, A. Petrone, 
 T. Henderson, D. Ranasinghe, V. G. Zakrzewski, J. Gao, N. Rega, 
 G. Zheng, W. Liang, M. Hada, M. Ehara, K. Toyota, R. Fukuda, 
 J. Hasegawa, M. Ishida, T. Nakajima, Y. Honda, O. Kitao, H. Nakai, 
 T. Vreven, K. Throssell, J. A. Montgomery, Jr., J. E. Peralta, 
 F. Ogliaro, M. J. Bearpark, J. J. Heyd, E. N. Brothers, K. N. Kudin, 
 V. N. Staroverov, T. A. Keith, R. Kobayashi, J. Normand, 
 K. Raghavachari, A. P. Rendell, J. C. Burant, S. S. Iyengar, 
 J. Tomasi, M. Cossi, J. M. Millam, M. Klene, C. Adamo, R. Cammi, 
 J. W. Ochterski, R. L. Martin, K. Morokuma, O. Farkas, 
 J. B. Foresman, and D. J. Fox, Gaussian, Inc., Wallingford CT, 2019.
 
 ******************************************
 Gaussian 16:  ES64L-G16RevC.01  3-Jul-2019
                24-Mar-2024 
 ******************************************
 -------------------------------------------------------
 #n TPSSTPSS/Gen Pseudo=Read EmpiricalDispersion=GD3 opt
 -------------------------------------------------------
 1/18=20,19=15,26=3,38=1/1,3;
 2/9=110,12=2,17=6,18=5,40=1/2;
 3/5=7,11=2,16=1,17=8,25=1,30=1,71=1,74=2523,124=31/1,2,3;
 4//1;
 5/5=2,38=5/2;
 6/7=2,8=2,9=2,10=2,28=1/1;
 7//1,2,3,16;
 1/18=20,19=15,26=3/3(2);
 2/9=110/2;
 99//99;
 2/9=110/2;
 3/5=7,6=1,11=2,16=1,17=8,25=1,30=1,71=1,74=2523,82=7,124=31/1,2,3;
 4/5=5,16=3,69=1/1;
 5/5=2,38=5/2;
 7//1,2,3,16;
 1/18=20,19=15,26=3/3(-5);
 2/9=110/2;
 6/7=2,8=2,9=2,10=2,19=2,28=1/1;
 99/9=1/99;
 -----
 Title
 -----
 Symbolic Z-matrix:
 Charge =  0 Multiplicity = 1
 Pd                    0.        0.        0. 
 Cl                   -0.6425    1.4374    1.6788 
 N                     1.3222   -0.8161    1.2178 
 C                     2.094    -1.2981    1.9258 
 C                     3.0566   -1.882     2.8273 
 H                     3.5491   -2.5914    2.3642 
 H                     2.5904   -2.2596    3.6025 
 H                     3.6832   -1.1914    3.1281 
 Cl                    0.6425   -1.4374   -1.6788 
 N                    -1.3222    0.8161   -1.2178 
 C                    -2.094     1.2981   -1.9258 
 C                    -3.0566    1.882    -2.8273 
 H                    -3.5491    2.5914   -2.3642 
 H                    -2.5904    2.2596   -3.6025 
 H                    -3.6832    1.1914   -3.1281 
 

 GradGradGradGradGradGradGradGradGradGradGradGradGradGradGradGradGradGrad
 Berny optimization.
 Initialization pass.
                           ----------------------------
                           !    Initial Parameters    !
                           ! (Angstroms and Degrees)  !
 --------------------------                            --------------------------
 ! Name  Definition              Value          Derivative Info.                !
 --------------------------------------------------------------------------------
 ! R1    R(1,2)                  2.3016         estimate D2E/DX2                !
 ! R2    R(1,3)                  1.9742         estimate D2E/DX2                !
 ! R3    R(1,9)                  2.3016         estimate D2E/DX2                !
 ! R4    R(1,10)                 1.9742         estimate D2E/DX2                !
 ! R5    R(3,4)                  1.1529         estimate D2E/DX2                !
 ! R6    R(4,5)                  1.4423         estimate D2E/DX2                !
 ! R7    R(5,6)                  0.9799         estimate D2E/DX2                !
 ! R8    R(5,7)                  0.9802         estimate D2E/DX2                !
 ! R9    R(5,8)                  0.9798         estimate D2E/DX2                !
 ! R10   R(10,11)                1.1529         estimate D2E/DX2                !
 ! R11   R(11,12)                1.4423         estimate D2E/DX2                !
 ! R12   R(12,13)                0.9799         estimate D2E/DX2                !
 ! R13   R(12,14)                0.9802         estimate D2E/DX2                !
 ! R14   R(12,15)                0.9798         estimate D2E/DX2                !
 ! A1    A(2,1,3)               89.7243         estimate D2E/DX2                !
 ! A2    A(2,1,10)              90.2757         estimate D2E/DX2                !
 ! A3    A(3,1,9)               90.2757         estimate D2E/DX2                !
 ! A4    A(9,1,10)              89.7243         estimate D2E/DX2                !
 ! A5    A(4,5,6)              109.4581         estimate D2E/DX2                !
 ! A6    A(4,5,7)              109.4409         estimate D2E/DX2                !
 ! A7    A(4,5,8)              109.4726         estimate D2E/DX2                !
 ! A8    A(6,5,7)              109.5055         estimate D2E/DX2                !
 ! A9    A(6,5,8)              109.5067         estimate D2E/DX2                !
 ! A10   A(7,5,8)              109.4435         estimate D2E/DX2                !
 ! A11   A(11,12,13)           109.4581         estimate D2E/DX2                !
 ! A12   A(11,12,14)           109.4409         estimate D2E/DX2                !
 ! A13   A(11,12,15)           109.4726         estimate D2E/DX2                !
 ! A14   A(13,12,14)           109.5055         estimate D2E/DX2                !
 ! A15   A(13,12,15)           109.5067         estimate D2E/DX2                !
 ! A16   A(14,12,15)           109.4435         estimate D2E/DX2                !
 ! A17   L(2,1,9,10,-1)        180.0            estimate D2E/DX2                !
 ! A18   L(3,1,10,9,-1)        180.0            estimate D2E/DX2                !
 ! A19   L(1,3,4,2,-1)         180.2781         estimate D2E/DX2                !
 ! A20   L(3,4,5,2,-1)         179.0364         estimate D2E/DX2                !
 ! A21   L(1,10,11,9,-1)       180.2781         estimate D2E/DX2                !
 ! A22   L(10,11,12,9,-1)      179.0364         estimate D2E/DX2                !
 ! A23   L(2,1,9,10,-2)        180.0            estimate D2E/DX2                !
 ! A24   L(3,1,10,9,-2)        180.0            estimate D2E/DX2                !
 ! A25   L(1,3,4,2,-2)         179.8131         estimate D2E/DX2                !
 ! A26   L(3,4,5,2,-2)         180.3856         estimate D2E/DX2                !
 ! A27   L(1,10,11,9,-2)       180.1869         estimate D2E/DX2                !
 ! A28   L(10,11,12,9,-2)      179.6144         estimate D2E/DX2                !
 ! D1    D(2,1,5,6)           -179.3885         estimate D2E/DX2                !
 ! D2    D(2,1,5,7)             60.3778         estimate D2E/DX2                !
 ! D3    D(2,1,5,8)            -59.244          estimate D2E/DX2                !
 ! D4    D(9,1,5,6)              0.6115         estimate D2E/DX2                !
 ! D5    D(9,1,5,7)           -119.6222         estimate D2E/DX2                !
 ! D6    D(9,1,5,8)            120.756          estimate D2E/DX2                !
 ! D7    D(2,1,12,13)           -0.6115         estimate D2E/DX2                !
 ! D8    D(2,1,12,14)          119.6222         estimate D2E/DX2                !
 ! D9    D(2,1,12,15)         -120.756          estimate D2E/DX2                !
 ! D10   D(9,1,12,13)          179.3885         estimate D2E/DX2                !
 ! D11   D(9,1,12,14)          -60.3778         estimate D2E/DX2                !
 ! D12   D(9,1,12,15)           59.244          estimate D2E/DX2                !
 --------------------------------------------------------------------------------
 Trust Radius=3.00D-01 FncErr=1.00D-07 GrdErr=1.00D-06 EigMax=2.50D+02 EigMin=1.00D-04
 Number of steps in this run=     64 maximum allowed number of steps=    100.
 GradGradGradGradGradGradGradGradGradGradGradGradGradGradGradGradGradGrad

                          Input orientation:                          
 ---------------------------------------------------------------------
 Center     Atomic      Atomic             Coordinates (Angstroms)
 Number     Number       Type             X           Y           Z
 ---------------------------------------------------------------------
      1         46           0        0.000000    0.000000    0.000000
      2         17           0       -0.642500    1.437400    1.678800
      3          7           0        1.322200   -0.816100    1.217800
      4          6           0        2.094000   -1.298100    1.925800
      5          6           0        3.056600   -1.882000    2.827300
      6          1           0        3.549100   -2.591400    2.364200
      7          1           0        2.590400   -2.259600    3.602500
      8          1           0        3.683200   -1.191400    3.128100
      9         17           0        0.642500   -1.437400   -1.678800
     10          7           0       -1.322200    0.816100   -1.217800
     11          6           0       -2.094000    1.298100   -1.925800
     12          6           0       -3.056600    1.882000   -2.827300
     13          1           0       -3.549100    2.591400   -2.364200
     14          1           0       -2.590400    2.259600   -3.602500
     15          1           0       -3.683200    1.191400   -3.128100
 ---------------------------------------------------------------------
                    Distance matrix (angstroms):
                    1          2          3          4          5
     1  Pd   0.000000
     2  Cl   2.301585   0.000000
     3  N    1.974150   3.025034   0.000000
     4  C    3.127076   3.877164   1.152937   0.000000
     5  C    4.569284   5.101060   2.595145   1.442304   0.000000
     6  H    4.990081   5.854102   3.070017   1.995529   0.979932
     7  H    4.979354   5.274474   3.062486   1.995550   0.980234
     8  H    4.976988   5.265239   3.060134   1.995612   0.979815
     9  Cl   2.301585   4.603170   3.039457   3.888367   5.131324
    10  N    1.974150   3.039457   3.948300   5.101224   6.543429
    11  C    3.127076   3.888367   5.101224   6.254152   7.696342
    12  C    4.569284   5.131324   6.543429   7.696342   9.138567
    13  H    4.990081   5.111349   6.940558   8.085598   9.518311
    14  H    4.979354   5.688801   6.928467   8.072356   9.507039
    15  H    4.976988   5.693212   6.926105   8.069421   9.504603
                    6          7          8          9         10
     6  H    0.000000
     7  H    1.600807   0.000000
     8  H    1.600477   1.600100   0.000000
     9  Cl   5.111349   5.688801   5.693212   0.000000
    10  N    6.940558   6.928467   6.926105   3.025034   0.000000
    11  C    8.085598   8.072356   8.069421   3.877164   1.152937
    12  C    9.518311   9.507039   9.504603   5.101060   2.595145
    13  H    9.980162   9.840080   9.837738   5.854102   3.070017
    14  H    9.840080   9.958709   9.826924   5.274474   3.062486
    15  H    9.837738   9.826924   9.953975   5.265239   3.060134
                   11         12         13         14         15
    11  C    0.000000
    12  C    1.442304   0.000000
    13  H    1.995529   0.979932   0.000000
    14  H    1.995550   0.980234   1.600807   0.000000
    15  H    1.995612   0.979815   1.600477   1.600100   0.000000
 Stoichiometry    C4H6Cl2N2Pd
 Framework group  CI[O(Pd),X(C4H6Cl2N2)]
 Deg. of freedom    18
 Full point group                 CI      NOp   2
 Largest Abelian subgroup         CI      NOp   2
 Largest concise Abelian subgroup CI      NOp   2
                         Standard orientation:                         
 ---------------------------------------------------------------------
 Center     Atomic      Atomic             Coordinates (Angstroms)
 Number     Number       Type             X           Y           Z
 ---------------------------------------------------------------------
      1         46           0        0.000000    0.000000    0.000000
      2         17           0       -0.642500    1.437400    1.678800
      3          7           0        1.322200   -0.816100    1.217800
      4          6           0        2.094000   -1.298100    1.925800
      5          6           0        3.056600   -1.882000    2.827300
      6          1           0        3.549100   -2.591400    2.364200
      7          1           0        2.590400   -2.259600    3.602500
      8          1           0        3.683200   -1.191400    3.128100
      9         17           0        0.642500   -1.437400   -1.678800
     10          7           0       -1.322200    0.816100   -1.217800
     11          6           0       -2.094000    1.298100   -1.925800
     12          6           0       -3.056600    1.882000   -2.827300
     13          1           0       -3.549100    2.591400   -2.364200
     14          1           0       -2.590400    2.259600   -3.602500
     15          1           0       -3.683200    1.191400   -3.128100
 ---------------------------------------------------------------------
 Rotational constants (GHZ):           1.3454350           0.5092254           0.3708086
 General basis read from cards:  (5D, 7F)
 ======================================================================================================
                                       Pseudopotential Parameters
 ======================================================================================================
  Center     Atomic      Valence      Angular      Power
  Number     Number     Electrons     Momentum     of R      Exponent        Coefficient   SO-Coeffient
 ======================================================================================================
    1         46           18
                                      F and up 
                                                     0      598.3336444       -0.05631770    0.00000000
                                                     1      162.4298290      -20.12880360    0.00000000
                                                     2       51.5714771     -105.81979230    0.00000000
                                                     2       16.4888260      -42.57333450    0.00000000
                                                     2        5.8287656       -3.61650860    0.00000000
                                      S - F
                                                     0       73.3806304        3.00036510    0.00000000
                                                     1       14.7550438       32.43500930    0.00000000
                                                     2       17.8350204      459.08303830    0.00000000
                                                     2       12.7111477     -868.06290290    0.00000000
                                                     2        9.3292063      514.47260980    0.00000000
                                      P - F
                                                     0       55.6689877        4.95930990    0.00000000
                                                     1       64.2337771       21.17110290    0.00000000
                                                     2       17.6254952      605.05600920    0.00000000
                                                     2       11.9058155     -726.96418460    0.00000000
                                                     2        8.5100832      396.32748830    0.00000000
                                      D - F
                                                     0       49.9994728        3.05087450    0.00000000
                                                     1       39.7477547       22.25065800    0.00000000
                                                     2       11.4321366      674.83576980    0.00000000
                                                     2        9.1790080    -1040.85540480    0.00000000
                                                     2        7.5624429      505.93751470    0.00000000
    2         17
                                   No pseudopotential on this center.
    3          7
                                   No pseudopotential on this center.
    4          6
                                   No pseudopotential on this center.
    5          6
                                   No pseudopotential on this center.
    6          1
                                   No pseudopotential on this center.
    7          1
                                   No pseudopotential on this center.
    8          1
                                   No pseudopotential on this center.
    9         17
                                   No pseudopotential on this center.
   10          7
                                   No pseudopotential on this center.
   11          6
                                   No pseudopotential on this center.
   12          6
                                   No pseudopotential on this center.
   13          1
                                   No pseudopotential on this center.
   14          1
                                   No pseudopotential on this center.
   15          1
                                   No pseudopotential on this center.
 ======================================================================================================
 There are    94 symmetry adapted cartesian basis functions of AG  symmetry.
 There are    88 symmetry adapted cartesian basis functions of AU  symmetry.
 There are    88 symmetry adapted basis functions of AG  symmetry.
 There are    84 symmetry adapted basis functions of AU  symmetry.
   172 basis functions,   363 primitive gaussians,   182 cartesian basis functions
    48 alpha electrons       48 beta electrons
       nuclear repulsion energy       675.6717706581 Hartrees.
 NAtoms=   15 NActive=   15 NUniq=    8 SFac= 3.52D+00 NAtFMM=   60 NAOKFM=F Big=F
 Integral buffers will be    131072 words long.
 Raffenetti 2 integral format.
 Two-electron integral symmetry is turned on.
 Nuclear repulsion after empirical dispersion term =      675.6634324120 Hartrees.
 One-electron integrals computed using PRISM.
   2 Symmetry operations used in ECPInt.
 ECPInt:  NShTT=    1830 NPrTT=   11083 LenC2=    1566 LenP2D=    6434.
 LDataN:  DoStor=T MaxTD1= 5 Len=  102
 NBasis=   172 RedAO= T EigKep=  1.26D-03  NBF=    88    84
 NBsUse=   172 1.00D-06 EigRej= -1.00D+00 NBFU=    88    84
 Defaulting to unpruned grid for atomic number  46.
 ExpMin= 2.62D-02 ExpMax= 2.52D+04 ExpMxC= 3.78D+03 IAcc=3 IRadAn=         5 AccDes= 0.00D+00
 Harris functional with IExCor= 1009 and IRadAn=       5 diagonalized for initial guess.
 HarFok:  IExCor= 1009 AccDes= 0.00D+00 IRadAn=         5 IDoV= 1 UseB2=F ITyADJ=14
 ICtDFT=  3500011 ScaDFX=  1.000000  1.000000  1.000000  1.000000
 Defaulting to unpruned grid for atomic number  46.
 FoFCou: FMM=F IPFlag=           0 FMFlag=      100000 FMFlg1=           0
         NFxFlg=           0 DoJE=T BraDBF=F KetDBF=T FulRan=T
         wScrn=  0.000000 ICntrl=       500 IOpCl=  0 I1Cent=   200000004 NGrid=           0
         NMat0=    1 NMatS0=      1 NMatT0=    0 NMatD0=    1 NMtDS0=    0 NMtDT0=    0
 Petite list used in FoFCou.
 Initial guess orbital symmetries:
       Occupied  (AU) (AG) (AU) (AG) (AG) (AU) (AU) (AG) (AU) (AG)
                 (AG) (AU) (AU) (AU) (AG) (AG) (AG) (AU) (AU) (AU)
                 (AG) (AU) (AG) (AU) (AG) (AU) (AG) (AU) (AG) (AU)
                 (AG) (AU) (AG) (AU) (AG) (AG) (AU) (AU) (AG) (AG)
                 (AG) (AU) (AU) (AU) (AG) (AG) (AG) (AG)
       Virtual   (AU) (AU) (AG) (AG) (AG) (AU) (AG) (AU) (AU) (AU)
                 (AG) (AG) (AU) (AG) (AG) (AU) (AU) (AU) (AG) (AU)
                 (AU) (AG) (AU) (AG) (AG) (AG) (AU) (AU) (AG) (AG)
                 (AU) (AG) (AG) (AU) (AU) (AG) (AU) (AG) (AG) (AU)
                 (AG) (AU) (AG) (AU) (AU) (AG) (AU) (AG) (AG) (AU)
                 (AG) (AU) (AU) (AG) (AU) (AG) (AU) (AG) (AU) (AU)
                 (AG) (AU) (AG) (AG) (AU) (AG) (AG) (AG) (AU) (AU)
                 (AU) (AU) (AG) (AG) (AG) (AU) (AU) (AG) (AU) (AG)
                 (AG) (AG) (AU) (AU) (AU) (AG) (AG) (AU) (AU) (AG)
                 (AG) (AU) (AG) (AG) (AU) (AU) (AU) (AG) (AG) (AU)
                 (AU) (AG) (AG) (AU) (AG) (AU) (AU) (AG) (AG) (AG)
                 (AU) (AG) (AU) (AG) (AU) (AU) (AG) (AG) (AU) (AG)
                 (AU) (AG) (AU) (AG)
 The electronic state of the initial guess is 1-AG.
 Requested convergence on RMS density matrix=1.00D-08 within 128 cycles.
 Requested convergence on MAX density matrix=1.00D-06.
 Requested convergence on             energy=1.00D-06.
 No special actions if energy rises.
 Defaulting to unpruned grid for atomic number  46.
 EnCoef did   100 forward-backward iterations
 EnCoef did   100 forward-backward iterations
 EnCoef did     3 forward-backward iterations
 SCF Done:  E(RTPSS-TPSS) =  -1312.67144673     A.U. after   13 cycles
            NFock= 13  Conv=0.94D-08     -V/T= 2.0679

 **********************************************************************

            Population analysis using the SCF Density.

 **********************************************************************

 Orbital symmetries:
       Occupied  (AU) (AG) (AU) (AG) (AU) (AG) (AG) (AU) (AU) (AG)
                 (AG) (AU) (AU) (AG) (AU) (AG) (AG) (AU) (AU) (AU)
                 (AG) (AU) (AG) (AU) (AG) (AU) (AG) (AU) (AG) (AG)
                 (AU) (AG) (AU) (AU) (AG) (AG) (AU) (AU) (AG) (AG)
                 (AG) (AU) (AG) (AU) (AU) (AG) (AG) (AG)
       Virtual   (AG) (AU) (AU) (AG) (AG) (AU) (AU) (AG) (AU) (AG)
                 (AU) (AU) (AU) (AG) (AG) (AG) (AU) (AU) (AU) (AG)
                 (AG) (AU) (AU) (AG) (AG) (AG) (AG) (AU) (AU) (AG)
                 (AG) (AG) (AG) (AG) (AU) (AU) (AU) (AU) (AG) (AU)
                 (AG) (AG) (AU) (AU) (AG) (AU) (AG) (AU) (AU) (AG)
                 (AG) (AU) (AU) (AG) (AU) (AG) (AG) (AU) (AU) (AU)
                 (AG) (AU) (AG) (AG) (AU) (AG) (AG) (AG) (AU) (AU)
                 (AU) (AU) (AG) (AG) (AG) (AU) (AU) (AU) (AG) (AG)
                 (AG) (AG) (AU) (AU) (AU) (AG) (AG) (AU) (AU) (AG)
                 (AG) (AU) (AG) (AG) (AU) (AU) (AU) (AG) (AG) (AU)
                 (AU) (AG) (AG) (AU) (AG) (AU) (AU) (AG) (AG) (AG)
                 (AU) (AG) (AU) (AG) (AU) (AU) (AG) (AG) (AU) (AG)
                 (AU) (AG) (AU) (AG)
 The electronic state is 1-AG.
 Alpha  occ. eigenvalues -- -100.91485-100.91483 -14.18454 -14.18453 -10.08801
 Alpha  occ. eigenvalues --  -10.08800 -10.04167 -10.04167  -9.16591  -9.16584
 Alpha  occ. eigenvalues --   -6.94514  -6.94512  -6.93706  -6.93704  -6.93674
 Alpha  occ. eigenvalues --   -6.93673  -3.25856  -2.02854  -2.01862  -1.97461
 Alpha  occ. eigenvalues --   -0.89695  -0.89478  -0.77698  -0.77646  -0.68044
 Alpha  occ. eigenvalues --   -0.67043  -0.53501  -0.51769  -0.47684  -0.47062
 Alpha  occ. eigenvalues --   -0.47045  -0.47042  -0.47009  -0.42089  -0.37118
 Alpha  occ. eigenvalues --   -0.35978  -0.34751  -0.34681  -0.33460  -0.27816
 Alpha  occ. eigenvalues --   -0.27721  -0.24922  -0.24266  -0.22355  -0.21947
 Alpha  occ. eigenvalues --   -0.21537  -0.19704  -0.18427
 Alpha virt. eigenvalues --   -0.10921  -0.04576  -0.03437  -0.01878  -0.01868
 Alpha virt. eigenvalues --    0.01299   0.03771   0.04301   0.05044   0.10042
 Alpha virt. eigenvalues --    0.12601   0.13743   0.14262   0.14876   0.15302
 Alpha virt. eigenvalues --    0.15337   0.15355   0.16701   0.26798   0.27368
 Alpha virt. eigenvalues --    0.28722   0.29442   0.32462   0.42031   0.43063
 Alpha virt. eigenvalues --    0.45526   0.47163   0.47291   0.48258   0.49403
 Alpha virt. eigenvalues --    0.51829   0.52962   0.52989   0.53231   0.53628
 Alpha virt. eigenvalues --    0.54292   0.55167   0.58218   0.58872   0.60714
 Alpha virt. eigenvalues --    0.61860   0.62995   0.64535   0.69258   0.73818
 Alpha virt. eigenvalues --    0.74611   0.77524   0.82546   0.83052   0.83323
 Alpha virt. eigenvalues --    0.83612   0.86076   0.86334   0.88392   0.89951
 Alpha virt. eigenvalues --    0.90045   0.90935   0.91502   0.92475   0.94442
 Alpha virt. eigenvalues --    0.96998   0.97056   0.98620   1.00212   1.00593
 Alpha virt. eigenvalues --    1.04917   1.06799   1.07334   1.10690   1.11321
 Alpha virt. eigenvalues --    1.25789   1.27160   1.34510   1.36498   1.40426
 Alpha virt. eigenvalues --    1.42842   1.43541   1.43734   1.43842   1.44108
 Alpha virt. eigenvalues --    1.49344   1.56277   1.60160   1.67504   1.68092
 Alpha virt. eigenvalues --    1.68925   1.70845   1.86393   1.86904   1.87704
 Alpha virt. eigenvalues --    1.88633   2.04301   2.04301   2.11033   2.12212
 Alpha virt. eigenvalues --    2.18506   2.18599   2.19037   2.19103   2.26337
 Alpha virt. eigenvalues --    2.26842   2.27457   2.29123   2.62567   2.63809
 Alpha virt. eigenvalues --    2.73998   2.74117   2.74661   2.75385   2.94156
 Alpha virt. eigenvalues --    2.95209   3.11488   3.11707   3.11876   3.11992
 Alpha virt. eigenvalues --    3.17999   3.20034   3.55534   3.55815   3.64996
 Alpha virt. eigenvalues --    3.65007   3.65091   3.65103  10.06748
          Condensed to atoms (all electrons):
               1          2          3          4          5          6
     1  Pd  17.201605   0.196702   0.104560  -0.029165   0.002054  -0.000173
     2  Cl   0.196702  17.122270  -0.005777   0.001623  -0.000013  -0.000004
     3  N    0.104560  -0.005777   6.449111   0.842534  -0.045187  -0.000766
     4  C   -0.029165   0.001623   0.842534   4.598422   0.392542  -0.026607
     5  C    0.002054  -0.000013  -0.045187   0.392542   4.805165   0.396136
     6  H   -0.000173  -0.000004  -0.000766  -0.026607   0.396136   0.486945
     7  H   -0.000120   0.000008  -0.000888  -0.026639   0.396859  -0.025772
     8  H   -0.000118   0.000008  -0.000965  -0.026672   0.397095  -0.025787
     9  Cl   0.196702  -0.004348  -0.005255   0.001692  -0.000016   0.000032
    10  N    0.104560  -0.005255  -0.003896  -0.000061  -0.000000   0.000000
    11  C   -0.029165   0.001692  -0.000061   0.000002   0.000000   0.000000
    12  C    0.002054  -0.000016  -0.000000   0.000000   0.000000  -0.000000
    13  H   -0.000173   0.000032   0.000000   0.000000  -0.000000   0.000000
    14  H   -0.000120  -0.000004   0.000000   0.000000  -0.000000  -0.000000
    15  H   -0.000118  -0.000004   0.000000   0.000000  -0.000000  -0.000000
               7          8          9         10         11         12
     1  Pd  -0.000120  -0.000118   0.196702   0.104560  -0.029165   0.002054
     2  Cl   0.000008   0.000008  -0.004348  -0.005255   0.001692  -0.000016
     3  N   -0.000888  -0.000965  -0.005255  -0.003896  -0.000061  -0.000000
     4  C   -0.026639  -0.026672   0.001692  -0.000061   0.000002   0.000000
     5  C    0.396859   0.397095  -0.000016  -0.000000   0.000000   0.000000
     6  H   -0.025772  -0.025787   0.000032   0.000000   0.000000  -0.000000
     7  H    0.486504  -0.025399  -0.000004   0.000000   0.000000  -0.000000
     8  H   -0.025399   0.486119  -0.000004   0.000000   0.000000  -0.000000
     9  Cl  -0.000004  -0.000004  17.122270  -0.005777   0.001623  -0.000013
    10  N    0.000000   0.000000  -0.005777   6.449111   0.842534  -0.045187
    11  C    0.000000   0.000000   0.001623   0.842534   4.598422   0.392542
    12  C   -0.000000  -0.000000  -0.000013  -0.045187   0.392542   4.805165
    13  H   -0.000000  -0.000000  -0.000004  -0.000766  -0.026607   0.396136
    14  H    0.000000  -0.000000   0.000008  -0.000888  -0.026639   0.396859
    15  H   -0.000000   0.000000   0.000008  -0.000965  -0.026672   0.397095
              13         14         15
     1  Pd  -0.000173  -0.000120  -0.000118
     2  Cl   0.000032  -0.000004  -0.000004
     3  N    0.000000   0.000000   0.000000
     4  C    0.000000   0.000000   0.000000
     5  C   -0.000000  -0.000000  -0.000000
     6  H    0.000000  -0.000000  -0.000000
     7  H   -0.000000   0.000000  -0.000000
     8  H   -0.000000  -0.000000   0.000000
     9  Cl  -0.000004   0.000008   0.000008
    10  N   -0.000766  -0.000888  -0.000965
    11  C   -0.026607  -0.026639  -0.026672
    12  C    0.396136   0.396859   0.397095
    13  H    0.486945  -0.025772  -0.025787
    14  H   -0.025772   0.486504  -0.025399
    15  H   -0.025787  -0.025399   0.486119
 Mulliken charges:
               1
     1  Pd   0.250914
     2  Cl  -0.306914
     3  N   -0.333410
     4  C    0.272331
     5  C   -0.344635
     6  H    0.195997
     7  H    0.195451
     8  H    0.195722
     9  Cl  -0.306914
    10  N   -0.333410
    11  C    0.272331
    12  C   -0.344635
    13  H    0.195997
    14  H    0.195451
    15  H    0.195722
 Sum of Mulliken charges =  -0.00000
 Mulliken charges with hydrogens summed into heavy atoms:
               1
     1  Pd   0.250914
     2  Cl  -0.306914
     3  N   -0.333410
     4  C    0.272331
     5  C    0.242536
     9  Cl  -0.306914
    10  N   -0.333410
    11  C    0.272331
    12  C    0.242536
 Electronic spatial extent (au):  <R**2>=           2826.8357
 Charge=              0.0000 electrons
 Dipole moment (field-independent basis, Debye):
    X=             -0.0000    Y=             -0.0000    Z=              0.0000  Tot=              0.0000
 Quadrupole moment (field-independent basis, Debye-Ang):
   XX=            -51.9113   YY=            -76.2978   ZZ=            -64.4512
   XY=            -15.5046   XZ=             31.6447   YZ=            -25.4281
 Traceless Quadrupole moment (field-independent basis, Debye-Ang):
   XX=             12.3088   YY=            -12.0777   ZZ=             -0.2311
   XY=            -15.5046   XZ=             31.6447   YZ=            -25.4281
 Octapole moment (field-independent basis, Debye-Ang**2):
  XXX=              0.0000  YYY=              0.0000  ZZZ=              0.0000  XYY=              0.0000
  XXY=             -0.0000  XXZ=              0.0000  XZZ=              0.0000  YZZ=              0.0000
  YYZ=              0.0000  XYZ=             -0.0000
 Hexadecapole moment (field-independent basis, Debye-Ang**3):
 XXXX=           -984.5933 YYYY=           -820.8770 ZZZZ=          -1301.9266 XXXY=            250.8673
 XXXZ=           -165.0038 YYYX=            346.8032 YYYZ=             45.1360 ZZZX=           -200.9603
 ZZZY=            -34.1465 XXYY=           -247.3349 XXZZ=           -235.3886 YYZZ=           -311.0974
 XXYZ=           -108.5365 YYXZ=            -43.4423 ZZXY=              6.6995
 N-N= 6.756634324120D+02 E-N=-4.428672894819D+03  KE= 1.229228247250D+03
 Symmetry AG   KE= 6.203682933490D+02
 Symmetry AU   KE= 6.088599539006D+02
   2 Symmetry operations used in ECPInt.
 ECPInt:  NShTT=    1830 NPrTT=   11083 LenC2=    1566 LenP2D=    6434.
 LDataN:  DoStor=T MaxTD1= 6 Len=  172
 Calling FoFJK, ICntrl=      2527 FMM=F ISym2X=1 I1Cent= 0 IOpClX= 0 NMat=1 NMatS=1 NMatT=0.
 Defaulting to unpruned grid for atomic number  46.
 ***** Axes restored to original set *****
 -------------------------------------------------------------------
 Center     Atomic                   Forces (Hartrees/Bohr)
 Number     Number              X              Y              Z
 -------------------------------------------------------------------
      1       46           0.000000000   -0.000000000    0.000000000
      2       17          -0.003931718    0.008581821    0.009776471
      3        7          -0.012709425    0.007378363   -0.012331034
      4        6           0.003395275   -0.001413826    0.003790937
      5        6          -0.059285558    0.034996746   -0.055805609
      6        1           0.052924952   -0.076524396   -0.050348694
      7        1          -0.050653505   -0.040394018    0.083199530
      8        1           0.067368668    0.075174556    0.032202895
      9       17           0.003931718   -0.008581821   -0.009776471
     10        7           0.012709425   -0.007378363    0.012331034
     11        6          -0.003395275    0.001413826   -0.003790937
     12        6           0.059285558   -0.034996746    0.055805609
     13        1          -0.052924952    0.076524396    0.050348694
     14        1           0.050653505    0.040394018   -0.083199530
     15        1          -0.067368668   -0.075174556   -0.032202895
 -------------------------------------------------------------------
 Cartesian Forces:  Max     0.083199530 RMS     0.043190967

 GradGradGradGradGradGradGradGradGradGradGradGradGradGradGradGradGradGrad
 Berny optimization.
 FormGI is forming the generalized inverse of G from B-inverse, IUseBI=4.
 Internal  Forces:  Max     0.105954848 RMS     0.035689567
 Search for a local minimum.
 Step number   1 out of a maximum of   64
 All quantities printed in internal units (Hartrees-Bohrs-Radians)
 Mixed Optimization -- RFO/linear search
 Second derivative matrix not updated -- first step.
 ITU=  0
     Eigenvalues ---    0.00230   0.00230   0.00230   0.00230   0.01321
     Eigenvalues ---    0.01321   0.01438   0.01438   0.04579   0.04579
     Eigenvalues ---    0.04643   0.04643   0.07896   0.07896   0.08486
     Eigenvalues ---    0.08486   0.12615   0.12615   0.15574   0.15574
     Eigenvalues ---    0.16000   0.16000   0.16000   0.16000   0.16000
     Eigenvalues ---    0.16000   0.19389   0.19389   0.25000   0.39271
     Eigenvalues ---    0.39271   0.51339   0.51339   0.51398   0.51398
     Eigenvalues ---    0.51421   0.51421   1.32530   1.32530
 RFO step:  Lambda=-1.10421208D-01 EMin= 2.30000000D-03
 Linear search not attempted -- first point.
 Maximum step size (   0.300) exceeded in Quadratic search.
    -- Step size scaled by   0.707
 Iteration  1 RMS(Cart)=  0.04629802 RMS(Int)=  0.00006094
 Iteration  2 RMS(Cart)=  0.00011731 RMS(Int)=  0.00000099
 Iteration  3 RMS(Cart)=  0.00000002 RMS(Int)=  0.00000099
 ClnCor:  largest displacement from symmetrization is 6.92D-08 for atom     9.
 Variable       Old X    -DE/DX   Delta X   Delta X   Delta X     New X
                                 (Linear)    (Quad)   (Total)
    R1        4.34937   0.01359   0.00000   0.03611   0.03611   4.38548
    R2        3.73060   0.00146   0.00000   0.00339   0.00339   3.73399
    R3        4.34937   0.01359   0.00000   0.03611   0.03611   4.38548
    R4        3.73060   0.00146   0.00000   0.00339   0.00339   3.73399
    R5        2.17873   0.02062   0.00000   0.01016   0.01016   2.18890
    R6        2.72556   0.01542   0.00000   0.02168   0.02168   2.74724
    R7        1.85180   0.10579   0.00000   0.11984   0.11984   1.97164
    R8        1.85237   0.10545   0.00000   0.11957   0.11957   1.97194
    R9        1.85158   0.10595   0.00000   0.11998   0.11998   1.97156
   R10        2.17873   0.02062   0.00000   0.01016   0.01016   2.18890
   R11        2.72556   0.01542   0.00000   0.02168   0.02168   2.74724
   R12        1.85180   0.10579   0.00000   0.11984   0.11984   1.97164
   R13        1.85237   0.10545   0.00000   0.11957   0.11957   1.97194
   R14        1.85158   0.10595   0.00000   0.11998   0.11998   1.97156
    A1        1.56598   0.00047   0.00000   0.00092   0.00092   1.56691
    A2        1.57561  -0.00047   0.00000  -0.00092  -0.00092   1.57469
    A3        1.57561  -0.00047   0.00000  -0.00092  -0.00092   1.57469
    A4        1.56598   0.00047   0.00000   0.00092   0.00092   1.56691
    A5        1.91040  -0.00019   0.00000  -0.00038  -0.00038   1.91002
    A6        1.91010  -0.00060   0.00000  -0.00160  -0.00160   1.90850
    A7        1.91066  -0.00080   0.00000  -0.00217  -0.00217   1.90848
    A8        1.91123   0.00059   0.00000   0.00168   0.00168   1.91291
    A9        1.91125   0.00063   0.00000   0.00175   0.00175   1.91300
   A10        1.91015   0.00037   0.00000   0.00072   0.00072   1.91087
   A11        1.91040  -0.00019   0.00000  -0.00038  -0.00038   1.91002
   A12        1.91010  -0.00060   0.00000  -0.00160  -0.00160   1.90850
   A13        1.91066  -0.00080   0.00000  -0.00217  -0.00217   1.90848
   A14        1.91123   0.00059   0.00000   0.00168   0.00168   1.91291
   A15        1.91125   0.00063   0.00000   0.00175   0.00175   1.91300
   A16        1.91015   0.00037   0.00000   0.00072   0.00072   1.91087
   A17        3.14159  -0.00000   0.00000  -0.00000   0.00000   3.14159
   A18        3.14159  -0.00000   0.00000  -0.00000   0.00000   3.14159
   A19        3.14645  -0.00007   0.00000  -0.00045  -0.00045   3.14600
   A20        3.12477   0.00118   0.00000   0.00638   0.00638   3.13115
   A21        3.14645  -0.00007   0.00000  -0.00045  -0.00045   3.14600
   A22        3.12477   0.00118   0.00000   0.00638   0.00638   3.13115
   A23        3.14159  -0.00000   0.00000  -0.00000   0.00000   3.14159
   A24        3.14159  -0.00000   0.00000  -0.00000   0.00000   3.14159
   A25        3.13833   0.00004   0.00000   0.00019   0.00019   3.13852
   A26        3.14832  -0.00017   0.00000  -0.00094  -0.00094   3.14738
   A27        3.14485  -0.00004   0.00000  -0.00019  -0.00019   3.14467
   A28        3.13486   0.00017   0.00000   0.00094   0.00094   3.13581
    D1       -3.13092   0.00000   0.00000  -0.00004  -0.00004  -3.13096
    D2        1.05379   0.00004   0.00000   0.00060   0.00060   1.05439
    D3       -1.03400  -0.00003   0.00000  -0.00053  -0.00053  -1.03453
    D4        0.01067   0.00000   0.00000  -0.00004  -0.00004   0.01064
    D5       -2.08780   0.00004   0.00000   0.00060   0.00060  -2.08720
    D6        2.10759  -0.00003   0.00000  -0.00053  -0.00053   2.10706
    D7       -0.01067  -0.00000   0.00000   0.00004   0.00004  -0.01064
    D8        2.08780  -0.00004   0.00000  -0.00060  -0.00060   2.08720
    D9       -2.10759   0.00003   0.00000   0.00053   0.00053  -2.10706
   D10        3.13092  -0.00000   0.00000   0.00004   0.00004   3.13096
   D11       -1.05379  -0.00004   0.00000  -0.00060  -0.00060  -1.05439
   D12        1.03400   0.00003   0.00000   0.00053   0.00053   1.03453
         Item               Value     Threshold  Converged?
 Maximum Force            0.105955     0.000450     NO 
 RMS     Force            0.035690     0.000300     NO 
 Maximum Displacement     0.114700     0.001800     NO 
 RMS     Displacement     0.046284     0.001200     NO 
 Predicted change in Energy=-5.545065D-02
 GradGradGradGradGradGradGradGradGradGradGradGradGradGradGradGradGradGrad

                          Input orientation:                          
 ---------------------------------------------------------------------
 Center     Atomic      Atomic             Coordinates (Angstroms)
 Number     Number       Type             X           Y           Z
 ---------------------------------------------------------------------
      1         46           0        0.000000   -0.000000   -0.000000
      2         17           0       -0.651643    1.451704    1.689242
      3          7           0        1.322653   -0.814844    1.221052
      4          6           0        2.097580   -1.297497    1.933950
      5          6           0        3.069325   -1.890419    2.838176
      6          1           0        3.591021   -2.644881    2.340988
      7          1           0        2.573201   -2.293044    3.663196
      8          1           0        3.737068   -1.155455    3.158233
      9         17           0        0.651643   -1.451704   -1.689242
     10          7           0       -1.322653    0.814844   -1.221052
     11          6           0       -2.097580    1.297497   -1.933950
     12          6           0       -3.069325    1.890419   -2.838176
     13          1           0       -3.591021    2.644881   -2.340988
     14          1           0       -2.573201    2.293044   -3.663196
     15          1           0       -3.737068    1.155455   -3.158233
 ---------------------------------------------------------------------
                    Distance matrix (angstroms):
                    1          2          3          4          5
     1  Pd   0.000000
     2  Cl   2.320694   0.000000
     3  N    1.975943   3.042086   0.000000
     4  C    3.134247   3.895666   1.158314   0.000000
     5  C    4.587993   5.131806   2.612052   1.453777   0.000000
     6  H    5.036969   5.933547   3.122305   2.052191   1.043349
     7  H    5.029753   5.321583   3.116571   2.051248   1.043506
     8  H    5.027444   5.311873   3.114175   2.051089   1.043307
     9  Cl   2.320694   4.641388   3.053794   3.904105   5.151230
    10  N    1.975943   3.053794   3.951885   5.110188   6.563935
    11  C    3.134247   3.904105   5.110188   6.268494   7.722234
    12  C    4.587993   5.151230   6.563935   7.722234   9.175987
    13  H    5.036969   5.128973   6.985844   8.134963   9.578773
    14  H    5.029753   5.748811   6.978003   8.126268   9.571170
    15  H    5.027444   5.753749   6.975743   8.123449   9.568765
                    6          7          8          9         10
     6  H    0.000000
     7  H    1.705281   0.000000
     8  H    1.705172   1.704020   0.000000
     9  Cl   5.128973   5.748811   5.753749   0.000000
    10  N    6.985844   6.978003   6.975743   3.042086   0.000000
    11  C    8.134963   8.126268   8.123449   3.895666   1.158314
    12  C    9.578773   9.571170   9.568765   5.131806   2.612052
    13  H   10.073937   9.921238   9.918915   5.933547   3.122305
    14  H    9.921238  10.059507   9.911788   5.321583   3.116571
    15  H    9.918915   9.911788  10.054887   5.311873   3.114175
                   11         12         13         14         15
    11  C    0.000000
    12  C    1.453777   0.000000
    13  H    2.052191   1.043349   0.000000
    14  H    2.051248   1.043506   1.705281   0.000000
    15  H    2.051089   1.043307   1.705172   1.704020   0.000000
 Stoichiometry    C4H6Cl2N2Pd
 Framework group  CI[O(Pd),X(C4H6Cl2N2)]
 Deg. of freedom    18
 Full point group                 CI      NOp   2
 Largest Abelian subgroup         CI      NOp   2
 Largest concise Abelian subgroup CI      NOp   2
                         Standard orientation:                         
 ---------------------------------------------------------------------
 Center     Atomic      Atomic             Coordinates (Angstroms)
 Number     Number       Type             X           Y           Z
 ---------------------------------------------------------------------
      1         46           0        0.000000    0.000000    0.000000
      2         17           0       -0.651643    1.451704    1.689242
      3          7           0        1.322653   -0.814844    1.221052
      4          6           0        2.097580   -1.297497    1.933950
      5          6           0        3.069325   -1.890419    2.838176
      6          1           0        3.591021   -2.644881    2.340988
      7          1           0        2.573201   -2.293044    3.663196
      8          1           0        3.737068   -1.155455    3.158233
      9         17           0        0.651643   -1.451704   -1.689242
     10          7           0       -1.322653    0.814844   -1.221052
     11          6           0       -2.097580    1.297497   -1.933950
     12          6           0       -3.069325    1.890419   -2.838176
     13          1           0       -3.591021    2.644881   -2.340988
     14          1           0       -2.573201    2.293044   -3.663196
     15          1           0       -3.737068    1.155455   -3.158233
 ---------------------------------------------------------------------
 Rotational constants (GHZ):           1.3212272           0.5051480           0.3669848
 Basis read from rwf:  (5D, 7F)
 Pseudo-potential data read from rwf file.
 There are    94 symmetry adapted cartesian basis functions of AG  symmetry.
 There are    88 symmetry adapted cartesian basis functions of AU  symmetry.
 There are    88 symmetry adapted basis functions of AG  symmetry.
 There are    84 symmetry adapted basis functions of AU  symmetry.
   172 basis functions,   363 primitive gaussians,   182 cartesian basis functions
    48 alpha electrons       48 beta electrons
       nuclear repulsion energy       670.5056550215 Hartrees.
 NAtoms=   15 NActive=   15 NUniq=    8 SFac= 3.52D+00 NAtFMM=   60 NAOKFM=F Big=F
 Integral buffers will be    131072 words long.
 Raffenetti 2 integral format.
 Two-electron integral symmetry is turned on.
 Nuclear repulsion after empirical dispersion term =      670.4973125588 Hartrees.
 One-electron integrals computed using PRISM.
   2 Symmetry operations used in ECPInt.
 ECPInt:  NShTT=    1830 NPrTT=   11083 LenC2=    1564 LenP2D=    6414.
 LDataN:  DoStor=T MaxTD1= 5 Len=  102
 NBasis=   172 RedAO= T EigKep=  1.31D-03  NBF=    88    84
 NBsUse=   172 1.00D-06 EigRej= -1.00D+00 NBFU=    88    84
 Defaulting to unpruned grid for atomic number  46.
 Initial guess from the checkpoint file:  "/scratch/gameelka/Gau-46045.chk"
 B after Tr=     0.000000    0.000000   -0.000000
         Rot=    1.000000    0.000282    0.000261   -0.000128 Ang=   0.05 deg.
 Initial guess orbital symmetries:
       Occupied  (AU) (AG) (AU) (AG) (AU) (AG) (AG) (AU) (AU) (AG)
                 (AG) (AU) (AU) (AG) (AU) (AG) (AG) (AU) (AU) (AU)
                 (AG) (AU) (AG) (AU) (AG) (AU) (AG) (AU) (AG) (AG)
                 (AU) (AG) (AU) (AU) (AG) (AG) (AU) (AU) (AG) (AG)
                 (AG) (AU) (AG) (AU) (AU) (AG) (AG) (AG)
       Virtual   (AG) (AU) (AU) (AG) (AG) (AU) (AU) (AG) (AU) (AG)
                 (AU) (AU) (AU) (AG) (AG) (AG) (AU) (AU) (AU) (AG)
                 (AG) (AU) (AU) (AG) (AG) (AG) (AG) (AU) (AU) (AG)
                 (AG) (AG) (AG) (AG) (AU) (AU) (AU) (AU) (AG) (AU)
                 (AG) (AG) (AU) (AU) (AG) (AU) (AG) (AU) (AU) (AG)
                 (AG) (AU) (AU) (AG) (AU) (AG) (AG) (AU) (AU) (AU)
                 (AG) (AU) (AG) (AG) (AU) (AG) (AG) (AG) (AU) (AU)
                 (AU) (AU) (AG) (AG) (AG) (AU) (AU) (AU) (AG) (AG)
                 (AG) (AG) (AU) (AU) (AU) (AG) (AG) (AU) (AU) (AG)
                 (AG) (AU) (AG) (AG) (AU) (AU) (AU) (AG) (AG) (AU)
                 (AU) (AG) (AG) (AU) (AG) (AU) (AU) (AG) (AG) (AG)
                 (AU) (AG) (AU) (AG) (AU) (AU) (AG) (AG) (AU) (AG)
                 (AU) (AG) (AU) (AG)
 ExpMin= 2.62D-02 ExpMax= 2.52D+04 ExpMxC= 3.78D+03 IAcc=3 IRadAn=         5 AccDes= 0.00D+00
 Harris functional with IExCor= 1009 and IRadAn=       5 diagonalized for initial guess.
 HarFok:  IExCor= 1009 AccDes= 0.00D+00 IRadAn=         5 IDoV= 1 UseB2=F ITyADJ=14
 ICtDFT=  3500011 ScaDFX=  1.000000  1.000000  1.000000  1.000000
 Defaulting to unpruned grid for atomic number  46.
 FoFCou: FMM=F IPFlag=           0 FMFlag=      100000 FMFlg1=           0
         NFxFlg=           0 DoJE=T BraDBF=F KetDBF=T FulRan=T
         wScrn=  0.000000 ICntrl=       500 IOpCl=  0 I1Cent=   200000004 NGrid=           0
         NMat0=    1 NMatS0=      1 NMatT0=    0 NMatD0=    1 NMtDS0=    0 NMtDT0=    0
 Petite list used in FoFCou.
 Requested convergence on RMS density matrix=1.00D-08 within 128 cycles.
 Requested convergence on MAX density matrix=1.00D-06.
 Requested convergence on             energy=1.00D-06.
 No special actions if energy rises.
 Defaulting to unpruned grid for atomic number  46.
 SCF Done:  E(RTPSS-TPSS) =  -1312.72388646     A.U. after   11 cycles
            NFock= 11  Conv=0.31D-08     -V/T= 2.0686
   2 Symmetry operations used in ECPInt.
 ECPInt:  NShTT=    1830 NPrTT=   11083 LenC2=    1564 LenP2D=    6414.
 LDataN:  DoStor=T MaxTD1= 6 Len=  172
 Calling FoFJK, ICntrl=      2527 FMM=F ISym2X=1 I1Cent= 0 IOpClX= 0 NMat=1 NMatS=1 NMatT=0.
 Defaulting to unpruned grid for atomic number  46.
 ***** Axes restored to original set *****
 -------------------------------------------------------------------
 Center     Atomic                   Forces (Hartrees/Bohr)
 Number     Number              X              Y              Z
 -------------------------------------------------------------------
      1       46           0.000000000   -0.000000000    0.000000000
      2       17          -0.002573040    0.005551411    0.006250849
      3        7          -0.005166972    0.002799847   -0.005198555
      4        6           0.001889903   -0.000684560    0.002082640
      5        6          -0.022994995    0.013564084   -0.021600230
      6        1           0.019859778   -0.028662808   -0.018760322
      7        1          -0.018644192   -0.015278994    0.031340562
      8        1           0.025444665    0.027897915    0.012277983
      9       17           0.002573040   -0.005551411   -0.006250849
     10        7           0.005166972   -0.002799847    0.005198555
     11        6          -0.001889903    0.000684560   -0.002082640
     12        6           0.022994995   -0.013564084    0.021600230
     13        1          -0.019859778    0.028662808    0.018760322
     14        1           0.018644192    0.015278994   -0.031340562
     15        1          -0.025444665   -0.027897915   -0.012277983
 -------------------------------------------------------------------
 Cartesian Forces:  Max     0.031340562 RMS     0.016375388

 GradGradGradGradGradGradGradGradGradGradGradGradGradGradGradGradGradGrad
 Berny optimization.
 Using GEDIIS/GDIIS optimizer.
 FormGI is forming the generalized inverse of G from B-inverse, IUseBI=4.
 Internal  Forces:  Max     0.039705291 RMS     0.013450415
 Search for a local minimum.
 Step number   2 out of a maximum of   64
 All quantities printed in internal units (Hartrees-Bohrs-Radians)
 Mixed Optimization -- RFO/linear search
 Update second derivatives using D2CorX and points    1    2
 DE= -5.24D-02 DEPred=-5.55D-02 R= 9.46D-01
 TightC=F SS=  1.41D+00  RLast= 3.00D-01 DXNew= 5.0454D-01 9.0001D-01
 Trust test= 9.46D-01 RLast= 3.00D-01 DXMaxT set to 5.05D-01
 ITU=  1  0
 Use linear search instead of GDIIS.
     Eigenvalues ---    0.00230   0.00230   0.00230   0.00230   0.01321
     Eigenvalues ---    0.01321   0.01441   0.01441   0.04580   0.04580
     Eigenvalues ---    0.04653   0.04653   0.07900   0.07900   0.08490
     Eigenvalues ---    0.08490   0.12615   0.12615   0.15526   0.15574
     Eigenvalues ---    0.16000   0.16000   0.16000   0.16000   0.16000
     Eigenvalues ---    0.16004   0.19389   0.19390   0.24999   0.39271
     Eigenvalues ---    0.39329   0.51339   0.51361   0.51398   0.51410
     Eigenvalues ---    0.51421   0.55232   1.32356   1.32530
 RFO step:  Lambda=-1.35026147D-03 EMin= 2.30000000D-03
 Quartic linear search produced a step of  0.85717.
 Iteration  1 RMS(Cart)=  0.06143565 RMS(Int)=  0.00099214
 Iteration  2 RMS(Cart)=  0.00240982 RMS(Int)=  0.00019363
 Iteration  3 RMS(Cart)=  0.00000273 RMS(Int)=  0.00019362
 Iteration  4 RMS(Cart)=  0.00000000 RMS(Int)=  0.00019362
 ClnCor:  largest displacement from symmetrization is 1.07D-08 for atom     9.
 Variable       Old X    -DE/DX   Delta X   Delta X   Delta X     New X
                                 (Linear)    (Quad)   (Total)
    R1        4.38548   0.00875   0.03095   0.06027   0.09122   4.47670
    R2        3.73399   0.00050   0.00290   0.00068   0.00359   3.73758
    R3        4.38548   0.00875   0.03095   0.06027   0.09122   4.47670
    R4        3.73399   0.00050   0.00290   0.00068   0.00359   3.73758
    R5        2.18890   0.00832   0.00871  -0.00062   0.00809   2.19698
    R6        2.74724   0.00549   0.01859  -0.00023   0.01836   2.76560
    R7        1.97164   0.03960   0.10272  -0.00170   0.10103   2.07267
    R8        1.97194   0.03954   0.10249  -0.00141   0.10108   2.07302
    R9        1.97156   0.03971   0.10285  -0.00154   0.10131   2.07287
   R10        2.18890   0.00832   0.00871  -0.00062   0.00809   2.19698
   R11        2.74724   0.00549   0.01859  -0.00023   0.01836   2.76560
   R12        1.97164   0.03960   0.10272  -0.00170   0.10103   2.07267
   R13        1.97194   0.03954   0.10249  -0.00141   0.10108   2.07302
   R14        1.97156   0.03971   0.10285  -0.00154   0.10131   2.07287
    A1        1.56691   0.00040   0.00079   0.00186   0.00265   1.56956
    A2        1.57469  -0.00040  -0.00079  -0.00186  -0.00265   1.57203
    A3        1.57469  -0.00040  -0.00079  -0.00186  -0.00265   1.57203
    A4        1.56691   0.00040   0.00079   0.00186   0.00265   1.56956
    A5        1.91002   0.00018  -0.00033   0.00236   0.00228   1.91230
    A6        1.90850   0.00017  -0.00137   0.00393   0.00234   1.91084
    A7        1.90848   0.00007  -0.00186   0.00345   0.00153   1.91001
    A8        1.91291  -0.00008   0.00144  -0.00308  -0.00156   1.91135
    A9        1.91300  -0.00007   0.00150  -0.00301  -0.00111   1.91189
   A10        1.91087  -0.00026   0.00062  -0.00362  -0.00348   1.90740
   A11        1.91002   0.00018  -0.00033   0.00236   0.00228   1.91230
   A12        1.90850   0.00017  -0.00137   0.00393   0.00234   1.91084
   A13        1.90848   0.00007  -0.00186   0.00345   0.00153   1.91001
   A14        1.91291  -0.00008   0.00144  -0.00308  -0.00156   1.91135
   A15        1.91300  -0.00007   0.00150  -0.00301  -0.00111   1.91189
   A16        1.91087  -0.00026   0.00062  -0.00362  -0.00348   1.90740
   A17        3.14159   0.00000   0.00000   0.00000   0.00000   3.14159
   A18        3.14159   0.00000   0.00000   0.00000   0.00000   3.14159
   A19        3.14600  -0.00009  -0.00039  -0.00240  -0.00295   3.14305
   A20        3.13115   0.00068   0.00547   0.06999   0.07519   3.20635
   A21        3.14600  -0.00009  -0.00039  -0.00240  -0.00295   3.14305
   A22        3.13115   0.00068   0.00547   0.06999   0.07519   3.20635
   A23        3.14159   0.00000   0.00000   0.00000  -0.00000   3.14159
   A24        3.14159   0.00000   0.00000   0.00000   0.00000   3.14159
   A25        3.13852   0.00004   0.00016   0.00134   0.00146   3.13998
   A26        3.14738  -0.00013  -0.00081  -0.01388  -0.01474   3.13264
   A27        3.14467  -0.00004  -0.00016  -0.00134  -0.00146   3.14321
   A28        3.13581   0.00013   0.00081   0.01388   0.01474   3.15055
    D1       -3.13096  -0.00000  -0.00003  -0.00113  -0.00103  -3.13199
    D2        1.05439   0.00004   0.00051   0.01601   0.01675   1.07114
    D3       -1.03453  -0.00004  -0.00045  -0.01215  -0.01296  -1.04748
    D4        0.01064  -0.00000  -0.00003  -0.00113  -0.00103   0.00961
    D5       -2.08720   0.00004   0.00051   0.01601   0.01675  -2.07045
    D6        2.10706  -0.00004  -0.00045  -0.01215  -0.01296   2.09411
    D7       -0.01064   0.00000   0.00003   0.00113   0.00103  -0.00961
    D8        2.08720  -0.00004  -0.00051  -0.01601  -0.01675   2.07045
    D9       -2.10706   0.00004   0.00045   0.01215   0.01296  -2.09411
   D10        3.13096   0.00000   0.00003   0.00113   0.00103   3.13199
   D11       -1.05439  -0.00004  -0.00051  -0.01601  -0.01675  -1.07114
   D12        1.03453   0.00004   0.00045   0.01215   0.01296   1.04748
         Item               Value     Threshold  Converged?
 Maximum Force            0.039705     0.000450     NO 
 RMS     Force            0.013450     0.000300     NO 
 Maximum Displacement     0.131842     0.001800     NO 
 RMS     Displacement     0.061626     0.001200     NO 
 Predicted change in Energy=-7.588769D-03
 GradGradGradGradGradGradGradGradGradGradGradGradGradGradGradGradGradGrad

                          Input orientation:                          
 ---------------------------------------------------------------------
 Center     Atomic      Atomic             Coordinates (Angstroms)
 Number     Number       Type             X           Y           Z
 ---------------------------------------------------------------------
      1         46           0       -0.000000   -0.000000   -0.000000
      2         17           0       -0.702361    1.505444    1.688885
      3          7           0        1.314505   -0.786476    1.251153
      4          6           0        2.086699   -1.250802    1.985822
      5          6           0        3.079905   -1.898954    2.843290
      6          1           0        3.598325   -2.682555    2.277425
      7          1           0        2.578739   -2.344564    3.711424
      8          1           0        3.806835   -1.153272    3.187901
      9         17           0        0.702361   -1.505444   -1.688885
     10          7           0       -1.314505    0.786476   -1.251153
     11          6           0       -2.086699    1.250802   -1.985822
     12          6           0       -3.079905    1.898954   -2.843290
     13          1           0       -3.598325    2.682555   -2.277425
     14          1           0       -2.578739    2.344564   -3.711424
     15          1           0       -3.806835    1.153272   -3.187901
 ---------------------------------------------------------------------
                    Distance matrix (angstroms):
                    1          2          3          4          5
     1  Pd   0.000000
     2  Cl   2.368967   0.000000
     3  N    1.977840   3.084194   0.000000
     4  C    3.140431   3.932419   1.162593   0.000000
     5  C    4.601753   5.218055   2.624718   1.463492   0.000000
     6  H    5.032962   6.031717   3.140730   2.102370   1.096810
     7  H    5.091320   5.447829   3.174722   2.101457   1.096992
     8  H    5.097523   5.445059   3.177616   2.100803   1.096916
     9  Cl   2.368967   4.737933   3.087953   3.935061   5.133047
    10  N    1.977840   3.087953   3.955680   5.118271   6.579273
    11  C    3.140431   3.935061   5.118271   6.280863   7.741775
    12  C    4.601753   5.133047   6.579273   7.741775   9.203507
    13  H    5.032962   5.050130   6.972871   8.121950   9.581789
    14  H    5.091320   5.778257   7.041870   8.194607   9.643234
    15  H    5.097523   5.791789   7.049535   8.202483   9.649794
                    6          7          8          9         10
     6  H    0.000000
     7  H    1.791687   0.000000
     8  H    1.791967   1.789266   0.000000
     9  Cl   5.050130   5.778257   5.791789   0.000000
    10  N    6.972871   7.041870   7.049535   3.084194   0.000000
    11  C    8.121950   8.194607   8.202483   3.932419   1.162593
    12  C    9.581789   9.643234   9.649794   5.218055   2.624718
    13  H   10.065924   9.964655   9.970945   6.031717   3.140730
    14  H    9.964655  10.182641  10.030509   5.447829   3.174722
    15  H    9.970945  10.030509  10.195046   5.445059   3.177616
                   11         12         13         14         15
    11  C    0.000000
    12  C    1.463492   0.000000
    13  H    2.102370   1.096810   0.000000
    14  H    2.101457   1.096992   1.791687   0.000000
    15  H    2.100803   1.096916   1.791967   1.789266   0.000000
 Stoichiometry    C4H6Cl2N2Pd
 Framework group  CI[O(Pd),X(C4H6Cl2N2)]
 Deg. of freedom    18
 Full point group                 CI      NOp   2
 Largest Abelian subgroup         CI      NOp   2
 Largest concise Abelian subgroup CI      NOp   2
                         Standard orientation:                         
 ---------------------------------------------------------------------
 Center     Atomic      Atomic             Coordinates (Angstroms)
 Number     Number       Type             X           Y           Z
 ---------------------------------------------------------------------
      1         46           0        0.000000    0.000000    0.000000
      2         17           0       -0.702361    1.505444    1.688885
      3          7           0        1.314505   -0.786476    1.251153
      4          6           0        2.086699   -1.250802    1.985822
      5          6           0        3.079905   -1.898954    2.843290
      6          1           0        3.598325   -2.682555    2.277425
      7          1           0        2.578739   -2.344564    3.711424
      8          1           0        3.806835   -1.153272    3.187901
      9         17           0        0.702361   -1.505444   -1.688885
     10          7           0       -1.314505    0.786476   -1.251153
     11          6           0       -2.086699    1.250802   -1.985822
     12          6           0       -3.079905    1.898954   -2.843290
     13          1           0       -3.598325    2.682555   -2.277425
     14          1           0       -2.578739    2.344564   -3.711424
     15          1           0       -3.806835    1.153272   -3.187901
 ---------------------------------------------------------------------
 Rotational constants (GHZ):           1.2667913           0.5018983           0.3611335
 Basis read from rwf:  (5D, 7F)
 Pseudo-potential data read from rwf file.
 There are    94 symmetry adapted cartesian basis functions of AG  symmetry.
 There are    88 symmetry adapted cartesian basis functions of AU  symmetry.
 There are    88 symmetry adapted basis functions of AG  symmetry.
 There are    84 symmetry adapted basis functions of AU  symmetry.
   172 basis functions,   363 primitive gaussians,   182 cartesian basis functions
    48 alpha electrons       48 beta electrons
       nuclear repulsion energy       662.9107634607 Hartrees.
 NAtoms=   15 NActive=   15 NUniq=    8 SFac= 3.52D+00 NAtFMM=   60 NAOKFM=F Big=F
 Integral buffers will be    131072 words long.
 Raffenetti 2 integral format.
 Two-electron integral symmetry is turned on.
 Nuclear repulsion after empirical dispersion term =      662.9023867702 Hartrees.
 One-electron integrals computed using PRISM.
   2 Symmetry operations used in ECPInt.
 ECPInt:  NShTT=    1830 NPrTT=   11083 LenC2=    1558 LenP2D=    6372.
 LDataN:  DoStor=T MaxTD1= 5 Len=  102
 NBasis=   172 RedAO= T EigKep=  1.38D-03  NBF=    88    84
 NBsUse=   172 1.00D-06 EigRej= -1.00D+00 NBFU=    88    84
 Defaulting to unpruned grid for atomic number  46.
 Initial guess from the checkpoint file:  "/scratch/gameelka/Gau-46045.chk"
 B after Tr=     0.000000   -0.000000    0.000000
         Rot=    0.999989    0.003415    0.002856   -0.001542 Ang=   0.54 deg.
 Initial guess orbital symmetries:
       Occupied  (AU) (AG) (AU) (AG) (AU) (AG) (AG) (AU) (AU) (AG)
                 (AG) (AU) (AU) (AG) (AU) (AG) (AG) (AU) (AU) (AU)
                 (AG) (AU) (AG) (AU) (AG) (AU) (AG) (AU) (AG) (AG)
                 (AG) (AU) (AU) (AU) (AG) (AG) (AU) (AU) (AG) (AG)
                 (AG) (AU) (AG) (AU) (AU) (AG) (AG) (AG)
       Virtual   (AG) (AU) (AU) (AG) (AG) (AU) (AU) (AG) (AU) (AG)
                 (AU) (AU) (AU) (AG) (AG) (AU) (AG) (AU) (AU) (AG)
                 (AG) (AU) (AU) (AG) (AG) (AG) (AG) (AU) (AU) (AG)
                 (AG) (AG) (AG) (AG) (AU) (AU) (AU) (AU) (AG) (AU)
                 (AG) (AG) (AU) (AU) (AU) (AG) (AG) (AU) (AG) (AU)
                 (AG) (AG) (AU) (AU) (AU) (AG) (AU) (AG) (AU) (AU)
                 (AG) (AU) (AG) (AU) (AG) (AG) (AG) (AG) (AU) (AU)
                 (AU) (AU) (AG) (AG) (AG) (AU) (AU) (AG) (AU) (AG)
                 (AG) (AG) (AU) (AU) (AU) (AG) (AG) (AU) (AU) (AG)
                 (AG) (AU) (AG) (AG) (AU) (AU) (AU) (AG) (AG) (AU)
                 (AU) (AG) (AG) (AU) (AG) (AU) (AU) (AG) (AG) (AG)
                 (AU) (AG) (AU) (AG) (AU) (AU) (AG) (AU) (AG) (AG)
                 (AU) (AG) (AU) (AG)
 ExpMin= 2.62D-02 ExpMax= 2.52D+04 ExpMxC= 3.78D+03 IAcc=3 IRadAn=         5 AccDes= 0.00D+00
 Harris functional with IExCor= 1009 and IRadAn=       5 diagonalized for initial guess.
 HarFok:  IExCor= 1009 AccDes= 0.00D+00 IRadAn=         5 IDoV= 1 UseB2=F ITyADJ=14
 ICtDFT=  3500011 ScaDFX=  1.000000  1.000000  1.000000  1.000000
 Defaulting to unpruned grid for atomic number  46.
 FoFCou: FMM=F IPFlag=           0 FMFlag=      100000 FMFlg1=           0
         NFxFlg=           0 DoJE=T BraDBF=F KetDBF=T FulRan=T
         wScrn=  0.000000 ICntrl=       500 IOpCl=  0 I1Cent=   200000004 NGrid=           0
         NMat0=    1 NMatS0=      1 NMatT0=    0 NMatD0=    1 NMtDS0=    0 NMtDT0=    0
 Petite list used in FoFCou.
 Requested convergence on RMS density matrix=1.00D-08 within 128 cycles.
 Requested convergence on MAX density matrix=1.00D-06.
 Requested convergence on             energy=1.00D-06.
 No special actions if energy rises.
 Defaulting to unpruned grid for atomic number  46.
 SCF Done:  E(RTPSS-TPSS) =  -1312.73549882     A.U. after   11 cycles
            NFock= 11  Conv=0.48D-08     -V/T= 2.0691
   2 Symmetry operations used in ECPInt.
 ECPInt:  NShTT=    1830 NPrTT=   11083 LenC2=    1558 LenP2D=    6372.
 LDataN:  DoStor=T MaxTD1= 6 Len=  172
 Calling FoFJK, ICntrl=      2527 FMM=F ISym2X=1 I1Cent= 0 IOpClX= 0 NMat=1 NMatS=1 NMatT=0.
 Defaulting to unpruned grid for atomic number  46.
 ***** Axes restored to original set *****
 -------------------------------------------------------------------
 Center     Atomic                   Forces (Hartrees/Bohr)
 Number     Number              X              Y              Z
 -------------------------------------------------------------------
      1       46          -0.000000000    0.000000000    0.000000000
      2       17           0.000309828   -0.000960737   -0.001394034
      3        7          -0.000351910    0.000931720    0.000919192
      4        6           0.002466152   -0.003951821   -0.001788923
      5        6          -0.002488283    0.002981400    0.000222734
      6        1          -0.000651786    0.000702033   -0.000047811
      7        1           0.000719864    0.000208694   -0.000357254
      8        1          -0.000149617   -0.000863933    0.000153315
      9       17          -0.000309828    0.000960737    0.001394034
     10        7           0.000351910   -0.000931720   -0.000919192
     11        6          -0.002466152    0.003951821    0.001788923
     12        6           0.002488283   -0.002981400   -0.000222734
     13        1           0.000651786   -0.000702033    0.000047811
     14        1          -0.000719864   -0.000208694    0.000357254
     15        1           0.000149617    0.000863933   -0.000153315
 -------------------------------------------------------------------
 Cartesian Forces:  Max     0.003951821 RMS     0.001448827

 GradGradGradGradGradGradGradGradGradGradGradGradGradGradGradGradGradGrad
 Berny optimization.
 Using GEDIIS/GDIIS optimizer.
 FormGI is forming the generalized inverse of G from B-inverse, IUseBI=4.
 Internal  Forces:  Max     0.004401333 RMS     0.001231485
 Search for a local minimum.
 Step number   3 out of a maximum of   64
 All quantities printed in internal units (Hartrees-Bohrs-Radians)
 Mixed Optimization -- RFO/linear search
 Update second derivatives using D2CorX and points    1    2    3
 DE= -1.16D-02 DEPred=-7.59D-03 R= 1.53D+00
 TightC=F SS=  1.41D+00  RLast= 3.04D-01 DXNew= 8.4853D-01 9.1238D-01
 Trust test= 1.53D+00 RLast= 3.04D-01 DXMaxT set to 8.49D-01
 ITU=  1  1  0
 Use linear search instead of GDIIS.
     Eigenvalues ---    0.00230   0.00230   0.00230   0.00230   0.01286
     Eigenvalues ---    0.01328   0.01466   0.01467   0.04529   0.04530
     Eigenvalues ---    0.04735   0.04735   0.07872   0.07872   0.08475
     Eigenvalues ---    0.08476   0.12615   0.12615   0.15134   0.15574
     Eigenvalues ---    0.16000   0.16000   0.16000   0.16000   0.16004
     Eigenvalues ---    0.16023   0.19389   0.19394   0.24972   0.39161
     Eigenvalues ---    0.39271   0.40775   0.51339   0.51362   0.51398
     Eigenvalues ---    0.51411   0.51421   1.32471   1.32530
 RFO step:  Lambda=-2.39767726D-03 EMin= 2.29999976D-03
 Quartic linear search produced a step of -0.06491.
 Iteration  1 RMS(Cart)=  0.12691076 RMS(Int)=  0.01248471
 Iteration  2 RMS(Cart)=  0.03802063 RMS(Int)=  0.00182107
 Iteration  3 RMS(Cart)=  0.00100063 RMS(Int)=  0.00176430
 Iteration  4 RMS(Cart)=  0.00000165 RMS(Int)=  0.00176430
 Iteration  5 RMS(Cart)=  0.00000002 RMS(Int)=  0.00176430
 ClnCor:  largest displacement from symmetrization is 3.14D-08 for atom     9.
 Variable       Old X    -DE/DX   Delta X   Delta X   Delta X     New X
                                 (Linear)    (Quad)   (Total)
    R1        4.47670  -0.00170  -0.00592  -0.00132  -0.00725   4.46945
    R2        3.73758  -0.00087  -0.00023  -0.00381  -0.00402   3.73356
    R3        4.47670  -0.00170  -0.00592  -0.00132  -0.00725   4.46945
    R4        3.73758  -0.00087  -0.00023  -0.00381  -0.00402   3.73356
    R5        2.19698  -0.00085  -0.00052   0.00051   0.00000   2.19698
    R6        2.76560  -0.00310  -0.00119  -0.00510  -0.00633   2.75927
    R7        2.07267  -0.00078  -0.00656   0.01164   0.00508   2.07775
    R8        2.07302  -0.00070  -0.00656   0.01180   0.00524   2.07825
    R9        2.07287  -0.00064  -0.00658   0.01194   0.00537   2.07824
   R10        2.19698  -0.00085  -0.00052   0.00051   0.00000   2.19698
   R11        2.76560  -0.00310  -0.00119  -0.00510  -0.00633   2.75927
   R12        2.07267  -0.00078  -0.00656   0.01164   0.00508   2.07775
   R13        2.07302  -0.00070  -0.00656   0.01180   0.00524   2.07825
   R14        2.07287  -0.00064  -0.00658   0.01194   0.00537   2.07824
    A1        1.56956   0.00065  -0.00017   0.00272   0.00255   1.57210
    A2        1.57203  -0.00065   0.00017  -0.00272  -0.00255   1.56949
    A3        1.57203  -0.00065   0.00017  -0.00272  -0.00255   1.56949
    A4        1.56956   0.00065  -0.00017   0.00272   0.00255   1.57210
    A5        1.91230  -0.00150  -0.00015  -0.00825  -0.00623   1.90607
    A6        1.91084   0.00087  -0.00015   0.00511   0.00382   1.91466
    A7        1.91001   0.00119  -0.00010   0.00687   0.00643   1.91645
    A8        1.91135  -0.00032   0.00010  -0.00171  -0.00014   1.91121
    A9        1.91189  -0.00039   0.00007  -0.00213   0.00077   1.91266
   A10        1.90740   0.00016   0.00023   0.00015  -0.00464   1.90275
   A11        1.91230  -0.00150  -0.00015  -0.00825  -0.00623   1.90607
   A12        1.91084   0.00087  -0.00015   0.00511   0.00382   1.91466
   A13        1.91001   0.00119  -0.00010   0.00687   0.00643   1.91645
   A14        1.91135  -0.00032   0.00010  -0.00171  -0.00014   1.91121
   A15        1.91189  -0.00039   0.00007  -0.00213   0.00077   1.91266
   A16        1.90740   0.00016   0.00023   0.00015  -0.00464   1.90275
   A17        3.14159  -0.00000   0.00000  -0.00000   0.00000   3.14159
   A18        3.14159   0.00000   0.00000   0.00000   0.00000   3.14159
   A19        3.14305  -0.00042   0.00019  -0.00825  -0.00930   3.13375
   A20        3.20635  -0.00440  -0.00488  -0.24130  -0.24816   2.95818
   A21        3.14305  -0.00042   0.00019  -0.00825  -0.00930   3.13375
   A22        3.20635  -0.00440  -0.00488  -0.24130  -0.24816   2.95818
   A23        3.14159  -0.00000   0.00000   0.00000   0.00000   3.14159
   A24        3.14159  -0.00000   0.00000  -0.00000   0.00000   3.14159
   A25        3.13998   0.00009  -0.00009   0.00166   0.00127   3.14125
   A26        3.13264   0.00024   0.00096   0.01348   0.01406   3.14670
   A27        3.14321  -0.00009   0.00009  -0.00166  -0.00127   3.14193
   A28        3.15055  -0.00024  -0.00096  -0.01348  -0.01406   3.13648
    D1       -3.13199   0.00000   0.00007   0.00091   0.00150  -3.13049
    D2        1.07114  -0.00027  -0.00109  -0.05267  -0.05104   1.02010
    D3       -1.04748   0.00027   0.00084   0.05024   0.04779  -0.99969
    D4        0.00961   0.00000   0.00007   0.00091   0.00150   0.01110
    D5       -2.07045  -0.00027  -0.00109  -0.05267  -0.05104  -2.12149
    D6        2.09411   0.00027   0.00084   0.05024   0.04779   2.14190
    D7       -0.00961  -0.00000  -0.00007  -0.00091  -0.00150  -0.01110
    D8        2.07045   0.00027   0.00109   0.05267   0.05104   2.12149
    D9       -2.09411  -0.00027  -0.00084  -0.05024  -0.04779  -2.14190
   D10        3.13199  -0.00000  -0.00007  -0.00091  -0.00150   3.13049
   D11       -1.07114   0.00027   0.00109   0.05267   0.05104  -1.02010
   D12        1.04748  -0.00027  -0.00084  -0.05024  -0.04779   0.99969
         Item               Value     Threshold  Converged?
 Maximum Force            0.004401     0.000450     NO 
 RMS     Force            0.001231     0.000300     NO 
 Maximum Displacement     0.335071     0.001800     NO 
 RMS     Displacement     0.156550     0.001200     NO 
 Predicted change in Energy=-1.308278D-03
 GradGradGradGradGradGradGradGradGradGradGradGradGradGradGradGradGradGrad

                          Input orientation:                          
 ---------------------------------------------------------------------
 Center     Atomic      Atomic             Coordinates (Angstroms)
 Number     Number       Type             X           Y           Z
 ---------------------------------------------------------------------
      1         46           0        0.000000    0.000000   -0.000000
      2         17           0       -0.577120    1.423886    1.798147
      3          7           0        1.351896   -0.888578    1.134127
      4          6           0        2.144958   -1.406155    1.808510
      5          6           0        3.061873   -1.880584    2.841078
      6          1           0        3.678909   -2.693173    2.431361
      7          1           0        2.489091   -2.253177    3.702806
      8          1           0        3.710198   -1.055866    3.171198
      9         17           0        0.577120   -1.423886   -1.798147
     10          7           0       -1.351896    0.888578   -1.134127
     11          6           0       -2.144958    1.406155   -1.808510
     12          6           0       -3.061873    1.880584   -2.841078
     13          1           0       -3.678909    2.693173   -2.431361
     14          1           0       -2.489091    2.253177   -3.702806
     15          1           0       -3.710198    1.055866   -3.171198
 ---------------------------------------------------------------------
                    Distance matrix (angstroms):
                    1          2          3          4          5
     1  Pd   0.000000
     2  Cl   2.365132   0.000000
     3  N    1.975712   3.083750   0.000000
     4  C    3.138284   3.926696   1.162594   0.000000
     5  C    4.580763   5.024888   2.611853   1.460142   0.000000
     6  H    5.167114   5.955242   3.217820   2.096989   1.099500
     7  H    4.998315   5.152686   3.123052   2.103386   1.099763
     8  H    4.993688   5.139604   3.120773   2.104661   1.099756
     9  Cl   2.365132   4.730264   3.079783   3.932735   5.282516
    10  N    1.975712   3.079783   3.951425   5.113991   6.553768
    11  C    3.138284   3.932735   5.113991   6.276567   7.715725
    12  C    4.580763   5.282516   6.553768   7.715725   9.161525
    13  H    5.167114   5.396380   7.130963   8.288450   9.703401
    14  H    4.998315   5.882503   6.929627   8.077111   9.524894
    15  H    4.993688   5.886085   6.923979   8.071052   9.520039
                    6          7          8          9         10
     6  H    0.000000
     7  H    1.796061   0.000000
     8  H    1.796972   1.790883   0.000000
     9  Cl   5.396380   5.882503   5.886085   0.000000
    10  N    7.130963   6.929627   6.923979   3.083750   0.000000
    11  C    8.288450   8.077111   8.071052   3.926696   1.162594
    12  C    9.703401   9.524894   9.520039   5.024888   2.611853
    13  H   10.334227  10.006928  10.002142   5.955242   3.217820
    14  H   10.006928   9.996630   9.830202   5.152686   3.123052
    15  H   10.002142   9.830202   9.987375   5.139604   3.120773
                   11         12         13         14         15
    11  C    0.000000
    12  C    1.460142   0.000000
    13  H    2.096989   1.099500   0.000000
    14  H    2.103386   1.099763   1.796061   0.000000
    15  H    2.104661   1.099756   1.796972   1.790883   0.000000
 Stoichiometry    C4H6Cl2N2Pd
 Framework group  CI[O(Pd),X(C4H6Cl2N2)]
 Deg. of freedom    18
 Full point group                 CI      NOp   2
 Largest Abelian subgroup         CI      NOp   2
 Largest concise Abelian subgroup CI      NOp   2
                         Standard orientation:                         
 ---------------------------------------------------------------------
 Center     Atomic      Atomic             Coordinates (Angstroms)
 Number     Number       Type             X           Y           Z
 ---------------------------------------------------------------------
      1         46           0        0.000000    0.000000    0.000000
      2         17           0       -0.577120    1.423886    1.798147
      3          7           0        1.351896   -0.888578    1.134127
      4          6           0        2.144958   -1.406155    1.808510
      5          6           0        3.061873   -1.880584    2.841078
      6          1           0        3.678909   -2.693173    2.431361
      7          1           0        2.489091   -2.253177    3.702806
      8          1           0        3.710198   -1.055866    3.171198
      9         17           0        0.577120   -1.423886   -1.798147
     10          7           0       -1.351896    0.888578   -1.134127
     11          6           0       -2.144958    1.406155   -1.808510
     12          6           0       -3.061873    1.880584   -2.841078
     13          1           0       -3.678909    2.693173   -2.431361
     14          1           0       -2.489091    2.253177   -3.702806
     15          1           0       -3.710198    1.055866   -3.171198
 ---------------------------------------------------------------------
 Rotational constants (GHZ):           1.2715463           0.5050093           0.3631329
 Basis read from rwf:  (5D, 7F)
 Pseudo-potential data read from rwf file.
 There are    94 symmetry adapted cartesian basis functions of AG  symmetry.
[...]
 ! R13   R(12,14)                1.096          -DE/DX =    0.0                 !
 ! R14   R(12,15)                1.096          -DE/DX =    0.0                 !
 ! A1    A(2,1,3)               90.0291         -DE/DX =    0.0                 !
 ! A2    A(2,1,10)              89.9709         -DE/DX =    0.0                 !
 ! A3    A(3,1,9)               89.9709         -DE/DX =    0.0                 !
 ! A4    A(9,1,10)              90.0291         -DE/DX =    0.0                 !
 ! A5    A(4,5,6)              109.6349         -DE/DX =    0.0                 !
 ! A6    A(4,5,7)              109.6606         -DE/DX =    0.0                 !
 ! A7    A(4,5,8)              109.67           -DE/DX =    0.0                 !
 ! A8    A(6,5,7)              109.3452         -DE/DX =    0.0                 !
 ! A9    A(6,5,8)              109.3523         -DE/DX =    0.0                 !
 ! A10   A(7,5,8)              109.1625         -DE/DX =    0.0                 !
 ! A11   A(11,12,13)           109.6349         -DE/DX =    0.0                 !
 ! A12   A(11,12,14)           109.6606         -DE/DX =    0.0                 !
 ! A13   A(11,12,15)           109.67           -DE/DX =    0.0                 !
 ! A14   A(13,12,14)           109.3452         -DE/DX =    0.0                 !
 ! A15   A(13,12,15)           109.3523         -DE/DX =    0.0                 !
 ! A16   A(14,12,15)           109.1625         -DE/DX =    0.0                 !
 ! A17   L(2,1,9,10,-1)        180.0            -DE/DX =    0.0                 !
 ! A18   L(3,1,10,9,-1)        180.0            -DE/DX =    0.0                 !
 ! A19   L(1,3,4,2,-1)         180.1714         -DE/DX =    0.0                 !
 ! A20   L(3,4,5,2,-1)         180.0566         -DE/DX =    0.0                 !
 ! A21   L(1,10,11,9,-1)       180.1714         -DE/DX =    0.0                 !
 ! A22   L(10,11,12,9,-1)      180.0566         -DE/DX =    0.0                 !
 ! A23   L(2,1,9,10,-2)        180.0            -DE/DX =    0.0                 !
 ! A24   L(3,1,10,9,-2)        180.0            -DE/DX =    0.0                 !
 ! A25   L(1,3,4,2,-2)         180.016          -DE/DX =    0.0                 !
 ! A26   L(3,4,5,2,-2)         180.0903         -DE/DX =    0.0                 !
 ! A27   L(1,10,11,9,-2)       179.984          -DE/DX =    0.0                 !
 ! A28   L(10,11,12,9,-2)      179.9097         -DE/DX =    0.0                 !
 ! D1    D(2,1,5,6)           -179.3106         -DE/DX =    0.0                 !
 ! D2    D(2,1,5,7)             60.6398         -DE/DX =    0.0                 !
 ! D3    D(2,1,5,8)            -59.2901         -DE/DX =    0.0                 !
 ! D4    D(9,1,5,6)              0.6894         -DE/DX =    0.0                 !
 ! D5    D(9,1,5,7)           -119.3602         -DE/DX =    0.0                 !
 ! D6    D(9,1,5,8)            120.7099         -DE/DX =    0.0                 !
 ! D7    D(2,1,12,13)           -0.6894         -DE/DX =    0.0                 !
 ! D8    D(2,1,12,14)          119.3602         -DE/DX =    0.0                 !
 ! D9    D(2,1,12,15)         -120.7099         -DE/DX =    0.0                 !
 ! D10   D(9,1,12,13)          179.3106         -DE/DX =    0.0                 !
 ! D11   D(9,1,12,14)          -60.6398         -DE/DX =    0.0                 !
 ! D12   D(9,1,12,15)           59.2901         -DE/DX =    0.0                 !
 --------------------------------------------------------------------------------
 GradGradGradGradGradGradGradGradGradGradGradGradGradGradGradGradGradGrad

                          Input orientation:                          
 ---------------------------------------------------------------------
 Center     Atomic      Atomic             Coordinates (Angstroms)
 Number     Number       Type             X           Y           Z
 ---------------------------------------------------------------------
      1         46           0       -0.000000    0.000000   -0.000000
      2         17           0       -0.673118    1.483707    1.707714
      3          7           0        1.319796   -0.812179    1.224469
      4          6           0        2.097538   -1.292093    1.942368
      5          6           0        3.074442   -1.894064    2.841392
      6          1           0        3.620821   -2.685002    2.315184
      7          1           0        2.561286   -2.323127    3.709616
      8          1           0        3.781639   -1.129577    3.183014
      9         17           0        0.673118   -1.483707   -1.707714
     10          7           0       -1.319796    0.812179   -1.224469
     11          6           0       -2.097538    1.292093   -1.942368
     12          6           0       -3.074442    1.894064   -2.841392
     13          1           0       -3.620821    2.685002   -2.315184
     14          1           0       -2.561286    2.323127   -3.709616
     15          1           0       -3.781639    1.129577   -3.183014
 ---------------------------------------------------------------------
                    Distance matrix (angstroms):
                    1          2          3          4          5
     1  Pd   0.000000
     2  Cl   2.360246   0.000000
     3  N    1.975049   3.078363   0.000000
     4  C    3.137191   3.928952   1.162144   0.000000
     5  C    4.594908   5.170954   2.619866   1.457722   0.000000
     6  H    5.067510   6.015402   3.160988   2.097517   1.095905
     7  H    5.071327   5.381539   3.162312   2.097917   1.096009
     8  H    5.070337   5.371277   3.161852   2.098049   1.096026
     9  Cl   2.360246   4.720492   3.076824   3.922855   5.160340
    10  N    1.975049   3.076824   3.950099   5.112239   6.569954
    11  C    3.137191   3.922855   5.112239   6.274381   7.732097
    12  C    4.594908   5.160340   6.569954   7.732097   9.189816
    13  H    5.067510   5.129891   7.012069   8.163557   9.611694
    14  H    5.071327   5.798040   7.016989   8.168193   9.615707
    15  H    5.070337   5.805819   7.015765   8.166930   9.614661
                    6          7          8          9         10
     6  H    0.000000
     7  H    1.788297   0.000000
     8  H    1.788390   1.786373   0.000000
     9  Cl   5.129891   5.798040   5.805819   0.000000
    10  N    7.012069   7.016989   7.015765   3.078363   0.000000
    11  C    8.163557   8.168193   8.166930   3.928952   1.162144
    12  C    9.611694   9.615707   9.614661   5.170954   2.619866
    13  H   10.135020   9.979881   9.978858   6.015402   3.160988
    14  H    9.979881  10.142653   9.983096   5.381539   3.162312
    15  H    9.978858   9.983096  10.140674   5.371277   3.161852
                   11         12         13         14         15
    11  C    0.000000
    12  C    1.457722   0.000000
    13  H    2.097517   1.095905   0.000000
    14  H    2.097917   1.096009   1.788297   0.000000
    15  H    2.098049   1.096026   1.788390   1.786373   0.000000
 Stoichiometry    C4H6Cl2N2Pd
 Framework group  CI[O(Pd),X(C4H6Cl2N2)]
 Deg. of freedom    18
 Full point group                 CI      NOp   2
 Largest Abelian subgroup         CI      NOp   2
 Largest concise Abelian subgroup CI      NOp   2
                         Standard orientation:                         
 ---------------------------------------------------------------------
 Center     Atomic      Atomic             Coordinates (Angstroms)
 Number     Number       Type             X           Y           Z
 ---------------------------------------------------------------------
      1         46           0        0.000000    0.000000    0.000000
      2         17           0       -0.673118    1.483707    1.707714
      3          7           0        1.319796   -0.812179    1.224469
      4          6           0        2.097538   -1.292093    1.942368
      5          6           0        3.074442   -1.894064    2.841392
      6          1           0        3.620821   -2.685002    2.315184
      7          1           0        2.561286   -2.323127    3.709616
      8          1           0        3.781639   -1.129577    3.183014
      9         17           0        0.673118   -1.483707   -1.707714
     10          7           0       -1.319796    0.812179   -1.224469
     11          6           0       -2.097538    1.292093   -1.942368
     12          6           0       -3.074442    1.894064   -2.841392
     13          1           0       -3.620821    2.685002   -2.315184
     14          1           0       -2.561286    2.323127   -3.709616
     15          1           0       -3.781639    1.129577   -3.183014
 ---------------------------------------------------------------------
 Rotational constants (GHZ):           1.2760624           0.5031819           0.3625440

 **********************************************************************

            Population analysis using the SCF Density.

 **********************************************************************

 Orbital symmetries:
       Occupied  (AU) (AG) (AU) (AG) (AU) (AG) (AG) (AU) (AU) (AG)
                 (AG) (AU) (AU) (AG) (AU) (AG) (AG) (AU) (AU) (AU)
                 (AG) (AU) (AG) (AU) (AG) (AU) (AG) (AU) (AG) (AG)
                 (AG) (AU) (AU) (AU) (AG) (AG) (AU) (AU) (AG) (AG)
                 (AG) (AU) (AG) (AU) (AU) (AG) (AG) (AG)
       Virtual   (AG) (AU) (AU) (AG) (AG) (AU) (AG) (AU) (AU) (AG)
                 (AU) (AU) (AU) (AG) (AG) (AU) (AG) (AU) (AU) (AG)
                 (AU) (AG) (AU) (AG) (AG) (AG) (AG) (AU) (AU) (AG)
                 (AG) (AG) (AG) (AU) (AG) (AU) (AU) (AG) (AU) (AU)
                 (AG) (AG) (AU) (AU) (AU) (AG) (AG) (AU) (AG) (AG)
                 (AU) (AG) (AU) (AU) (AU) (AG) (AG) (AU) (AU) (AU)
                 (AG) (AG) (AU) (AU) (AG) (AG) (AG) (AG) (AU) (AU)
                 (AU) (AU) (AG) (AG) (AG) (AU) (AG) (AU) (AU) (AG)
                 (AG) (AG) (AU) (AU) (AU) (AG) (AG) (AU) (AU) (AG)
                 (AG) (AU) (AG) (AU) (AU) (AG) (AG) (AG) (AU) (AU)
                 (AU) (AG) (AG) (AU) (AG) (AU) (AU) (AG) (AG) (AG)
                 (AU) (AG) (AU) (AU) (AG) (AU) (AG) (AU) (AG) (AG)
                 (AG) (AU) (AU) (AG)
 The electronic state is 1-AG.
 Alpha  occ. eigenvalues -- -100.91658-100.91656 -14.18729 -14.18727 -10.09211
 Alpha  occ. eigenvalues --  -10.09211 -10.07590 -10.07590  -9.16697  -9.16691
 Alpha  occ. eigenvalues --   -6.94636  -6.94635  -6.93813  -6.93811  -6.93785
 Alpha  occ. eigenvalues --   -6.93784  -3.25953  -2.03038  -2.01789  -1.97571
 Alpha  occ. eigenvalues --   -0.89383  -0.89158  -0.75095  -0.75033  -0.67687
 Alpha  occ. eigenvalues --   -0.66911  -0.52892  -0.50668  -0.47121  -0.44865
 Alpha  occ. eigenvalues --   -0.44862  -0.44829  -0.44806  -0.42041  -0.36687
 Alpha  occ. eigenvalues --   -0.35682  -0.34415  -0.34359  -0.32845  -0.27512
 Alpha  occ. eigenvalues --   -0.27225  -0.24865  -0.24359  -0.22230  -0.21904
 Alpha  occ. eigenvalues --   -0.21671  -0.20042  -0.18847
 Alpha virt. eigenvalues --   -0.11850  -0.05329  -0.04296  -0.02772  -0.02761
 Alpha virt. eigenvalues --    0.00608   0.03425   0.03684   0.05044   0.07972
 Alpha virt. eigenvalues --    0.10747   0.11789   0.12335   0.12335   0.12392
 Alpha virt. eigenvalues --    0.13121   0.14084   0.15274   0.26494   0.26544
 Alpha virt. eigenvalues --    0.28238   0.28920   0.32487   0.41830   0.43040
 Alpha virt. eigenvalues --    0.46230   0.46518   0.48185   0.49758   0.51249
 Alpha virt. eigenvalues --    0.52731   0.53457   0.53924   0.54083   0.54776
 Alpha virt. eigenvalues --    0.54787   0.55179   0.58620   0.59133   0.61074
 Alpha virt. eigenvalues --    0.62041   0.62978   0.64273   0.68781   0.72423
 Alpha virt. eigenvalues --    0.72896   0.74530   0.77211   0.77283   0.77658
 Alpha virt. eigenvalues --    0.77736   0.81273   0.84001   0.85173   0.85843
 Alpha virt. eigenvalues --    0.88592   0.89970   0.90008   0.91835   0.92272
 Alpha virt. eigenvalues --    0.95232   0.95937   0.96187   0.96527   0.97941
 Alpha virt. eigenvalues --    1.03160   1.04428   1.05809   1.09380   1.09433
 Alpha virt. eigenvalues --    1.26216   1.27617   1.31936   1.37220   1.40330
 Alpha virt. eigenvalues --    1.41362   1.42928   1.42928   1.43623   1.44006
 Alpha virt. eigenvalues --    1.47053   1.57268   1.61391   1.66590   1.67051
 Alpha virt. eigenvalues --    1.67784   1.69189   1.85029   1.85654   1.86322
 Alpha virt. eigenvalues --    1.87261   1.98980   1.98980   2.02210   2.02262
 Alpha virt. eigenvalues --    2.02923   2.03095   2.05085   2.06085   2.21030
 Alpha virt. eigenvalues --    2.21336   2.21844   2.22837   2.52936   2.53679
 Alpha virt. eigenvalues --    2.62335   2.62596   2.63276   2.64213   2.85985
 Alpha virt. eigenvalues --    2.86715   2.90275   2.90554   2.90752   2.90756
 Alpha virt. eigenvalues --    3.04057   3.05127   3.26432   3.27620   3.37008
 Alpha virt. eigenvalues --    3.37012   3.37032   3.37036  10.03486
          Condensed to atoms (all electrons):
               1          2          3          4          5          6
     1  Pd  17.173166   0.199929   0.104526  -0.027517   0.001923  -0.000159
     2  Cl   0.199929  17.119161  -0.004031   0.001367  -0.000008  -0.000002
     3  N    0.104526  -0.004031   6.453131   0.843437  -0.045616  -0.001047
     4  C   -0.027517   0.001367   0.843437   4.590396   0.363048  -0.029723
     5  C    0.001923  -0.000008  -0.045616   0.363048   4.936736   0.379767
     6  H   -0.000159  -0.000002  -0.001047  -0.029723   0.379767   0.497920
     7  H   -0.000103   0.000006  -0.000951  -0.029582   0.379763  -0.023041
     8  H   -0.000102   0.000007  -0.000966  -0.029589   0.379798  -0.023042
     9  Cl   0.199929  -0.003220  -0.004137   0.001389  -0.000019   0.000030
    10  N    0.104526  -0.004137  -0.003830  -0.000063  -0.000000   0.000000
    11  C   -0.027517   0.001389  -0.000063   0.000002   0.000000   0.000000
    12  C    0.001923  -0.000019  -0.000000   0.000000   0.000000  -0.000000
    13  H   -0.000159   0.000030   0.000000   0.000000  -0.000000   0.000000
    14  H   -0.000103  -0.000002   0.000000   0.000000  -0.000000  -0.000000
    15  H   -0.000102  -0.000002   0.000000   0.000000  -0.000000  -0.000000
               7          8          9         10         11         12
     1  Pd  -0.000103  -0.000102   0.199929   0.104526  -0.027517   0.001923
     2  Cl   0.000006   0.000007  -0.003220  -0.004137   0.001389  -0.000019
     3  N   -0.000951  -0.000966  -0.004137  -0.003830  -0.000063  -0.000000
     4  C   -0.029582  -0.029589   0.001389  -0.000063   0.000002   0.000000
     5  C    0.379763   0.379798  -0.000019  -0.000000   0.000000   0.000000
     6  H   -0.023041  -0.023042   0.000030   0.000000   0.000000  -0.000000
     7  H    0.499288  -0.022960  -0.000002   0.000000   0.000000  -0.000000
     8  H   -0.022960   0.499175  -0.000002   0.000000   0.000000  -0.000000
     9  Cl  -0.000002  -0.000002  17.119161  -0.004031   0.001367  -0.000008
    10  N    0.000000   0.000000  -0.004031   6.453131   0.843437  -0.045616
    11  C    0.000000   0.000000   0.001367   0.843437   4.590396   0.363048
    12  C   -0.000000  -0.000000  -0.000008  -0.045616   0.363048   4.936736
    13  H   -0.000000  -0.000000  -0.000002  -0.001047  -0.029723   0.379767
    14  H    0.000000  -0.000000   0.000006  -0.000951  -0.029582   0.379763
    15  H   -0.000000   0.000000   0.000007  -0.000966  -0.029589   0.379798
              13         14         15
     1  Pd  -0.000159  -0.000103  -0.000102
     2  Cl   0.000030  -0.000002  -0.000002
     3  N    0.000000   0.000000   0.000000
     4  C    0.000000   0.000000   0.000000
     5  C   -0.000000  -0.000000  -0.000000
     6  H    0.000000  -0.000000  -0.000000
     7  H   -0.000000   0.000000  -0.000000
     8  H   -0.000000  -0.000000   0.000000
     9  Cl  -0.000002   0.000006   0.000007
    10  N   -0.001047  -0.000951  -0.000966
    11  C   -0.029723  -0.029582  -0.029589
    12  C    0.379767   0.379763   0.379798
    13  H    0.497920  -0.023041  -0.023042
    14  H   -0.023041   0.499288  -0.022960
    15  H   -0.023042  -0.022960   0.499175
 Mulliken charges:
               1
     1  Pd   0.269837
     2  Cl  -0.310468
     3  N   -0.340454
     4  C    0.316833
     5  C   -0.395392
     6  H    0.199298
     7  H    0.197583
     8  H    0.197681
     9  Cl  -0.310468
    10  N   -0.340454
    11  C    0.316833
    12  C   -0.395392
    13  H    0.199298
    14  H    0.197583
    15  H    0.197681
 Sum of Mulliken charges =  -0.00000
 Mulliken charges with hydrogens summed into heavy atoms:
               1
     1  Pd   0.269837
     2  Cl  -0.310468
     3  N   -0.340454
     4  C    0.316833
     5  C    0.199170
     9  Cl  -0.310468
    10  N   -0.340454
    11  C    0.316833
    12  C    0.199170
 Electronic spatial extent (au):  <R**2>=           2892.6329
 Charge=             -0.0000 electrons
 Dipole moment (field-independent basis, Debye):
    X=              0.0000    Y=              0.0000    Z=              0.0000  Tot=              0.0000
 Quadrupole moment (field-independent basis, Debye-Ang):
   XX=            -52.0564   YY=            -76.8755   ZZ=            -64.7715
   XY=            -15.4867   XZ=             32.0973   YZ=            -25.8916
 Traceless Quadrupole moment (field-independent basis, Debye-Ang):
   XX=             12.5114   YY=            -12.3077   ZZ=             -0.2037
   XY=            -15.4867   XZ=             32.0973   YZ=            -25.8916
 Octapole moment (field-independent basis, Debye-Ang**2):
  XXX=              0.0000  YYY=             -0.0000  ZZZ=              0.0000  XYY=              0.0000
  XXY=             -0.0000  XXZ=             -0.0000  XZZ=             -0.0000  YZZ=              0.0000
  YYZ=             -0.0000  XYZ=              0.0000
 Hexadecapole moment (field-independent basis, Debye-Ang**3):
 XXXX=          -1024.7616 YYYY=           -859.1263 ZZZZ=          -1349.8499 XXXY=            265.5382
 XXXZ=           -171.3242 YYYX=            359.8713 YYYZ=             43.9170 ZZZX=           -209.8798
 ZZZY=            -39.5685 XXYY=           -257.2740 XXZZ=           -249.5817 YYZZ=           -324.7768
 XXYZ=           -107.5642 YYXZ=            -46.2726 ZZXY=             13.0109
 N-N= 6.643755281647D+02 E-N=-4.405316800113D+03  KE= 1.227902652174D+03
 Symmetry AG   KE= 6.197076617867D+02
 Symmetry AU   KE= 6.081949903877D+02
 Unable to Open any file for archive entry.
 1\1\GINC-CEDAR5\FOpt\RTPSSTPSS\Gen\C4H6Cl2N2Pd1\GAMEELKA\24-Mar-2024\0
 \\#n TPSSTPSS/Gen Pseudo=Read EmpiricalDispersion=GD3 opt\\Title\\0,1\
 Pd,0.,0.,0.\Cl,-0.673117897,1.4837069752,1.7077142891\N,1.319795788,-0
 .8121787139,1.2244693311\C,2.0975381755,-1.292093439,1.9423678328\C,3.
 0744417017,-1.8940642771,2.8413916551\H,3.6208209593,-2.6850020433,2.3
 151843384\H,2.5612862018,-2.3231269423,3.7096155581\H,3.7816386852,-1.
 1295772347,3.1830143532\Cl,0.673117897,-1.4837069752,-1.7077142891\N,-
 1.319795788,0.8121787139,-1.2244693311\C,-2.0975381755,1.292093439,-1.
 9423678328\C,-3.0744417017,1.8940642771,-2.8413916551\H,-3.6208209593,
 2.6850020433,-2.3151843384\H,-2.5612862018,2.3231269423,-3.7096155581\
 H,-3.7816386852,1.1295772347,-3.1830143532\\Version=ES64L-G16RevC.01\S
 tate=1-AG\HF=-1312.7358757\RMSD=6.918e-09\RMSF=3.000e-05\Dipole=0.,0.,
 0.\Quadrupole=9.3019237,-9.1504865,-0.1514373,-11.5139935,23.8635451,-
 19.2497891\PG=CI [O(Pd1),X(C4H6Cl2N2)]\\@
 The archive entry for this job was punched.


 The cat could very well be man's best friend
 but would never stoop to admitting it.
                               -- Doug Larson
 Job cpu time:       0 days  0 hours  6 minutes 26.0 seconds.
 Elapsed time:       0 days  0 hours  6 minutes 30.7 seconds.
 File lengths (MBytes):  RWF=     24 Int=      0 D2E=      0 Chk=      3 Scr=      1
 Normal termination of Gaussian 16 at Sun Mar 24 15:43:07 2024.
