 Entering Gaussian System, Link 0=g16
 Input=ru-full.inp
 Output=ru-full.log
 Initial command:
 /opt/software/gaussian/g16.c01/l1.exe "/scratch/gameelka/Gau-57600.inp" -scrdir="/scratch/gameelka/"
 Entering Link 1 = /opt/software/gaussian/g16.c01/l1.exe PID=     57601.
  
 Copyright (c) 1988-2019, Gaussian, Inc.  All Rights Reserved.
  
 This is part of the Gaussian(R) 16 program.  It is based on
 the Gaussian(R) 09 system (copyright 2009, Gaussian, Inc.),
 the Gaussian(R) 03 system (copyright 2003, Gaussian, Inc.),
 the Gaussian(R) 98 system (copyright 1998, Gaussian, Inc.),
 the Gaussian(R) 94 system (copyright 1995, Gaussian, Inc.),
 the Gaussian 92(TM) system (copyright 1992, Gaussian, Inc.),
 the Gaussian 90(TM) system (copyright 1990, Gaussian, Inc.),
 the Gaussian 88(TM) system (copyright 1988, Gaussian, Inc.),
 the Gaussian 86(TM) system (copyright 1986, Carnegie Mellon
 University), and the Gaussian 82(TM) system (copyright 1983,
 Carnegie Mellon University). Gaussian is a federally registered
 trademark of Gaussian, Inc.
  
 This software contains proprietary and confidential information,
 including trade secrets, belonging to Gaussian, Inc.
  
 This software is provided under written license and may be
 used, copied, transmitted, or stored only in accord with that
 written license.
  
 The following legend is applicable only to US Government
 contracts under FAR:
  
                    RESTRICTED RIGHTS LEGEND
  
 Use, reproduction and disclosure by the US Government is
 subject to restrictions as set forth in subparagraphs (a)
 and (c) of the Commercial Computer Software - Restricted
 Rights clause in FAR 52.227-19.
  
 Gaussian, Inc.
 340 Quinnipiac St., Bldg. 40, Wallingford CT 06492
  
  
 ---------------------------------------------------------------
 Warning -- This program may not be used in any manner that
 competes with the business of Gaussian, Inc. or will provide
 assistance to any competitor of Gaussian, Inc.  The licensee
 of this program is prohibited from giving any competitor of
 Gaussian, Inc. access to this program.  By using this program,
 the user acknowledges that Gaussian, Inc. is engaged in the
 business of creating and licensing software in the field of
 computational chemistry and represents and warrants to the
 licensee that it is not a competitor of Gaussian, Inc. and that
 it will not use this program in any manner prohibited above.
 ---------------------------------------------------------------
  

 Cite this work as:
 Gaussian 16, Revision C.01,
 M. J. Frisch, G. W. Trucks, H. B. Schlegel, G. E. Scuseria, 
 M. A. Robb, J. R. Cheeseman, G. Scalmani, V. Barone, 
 G. A. Petersson, H. Nakatsuji, X. Li, M. Caricato, A. V. Marenich, 
 J. Bloino, B. G. Janesko, R. Gomperts, B. Mennucci, H. P. Hratchian, 
 J. V. Ortiz, A. F. Izmaylov, J. L. Sonnenberg, D. Williams-Young, 
 F. Ding, F. Lipparini, F. Egidi, J. Goings, B. Peng, A. Petrone, 
 T. Henderson, D. Ranasinghe, V. G. Zakrzewski, J. Gao, N. Rega, 
 G. Zheng, W. Liang, M. Hada, M. Ehara, K. Toyota, R. Fukuda, 
 J. Hasegawa, M. Ishida, T. Nakajima, Y. Honda, O. Kitao, H. Nakai, 
 T. Vreven, K. Throssell, J. A. Montgomery, Jr., J. E. Peralta, 
 F. Ogliaro, M. J. Bearpark, J. J. Heyd, E. N. Brothers, K. N. Kudin, 
 V. N. Staroverov, T. A. Keith, R. Kobayashi, J. Normand, 
 K. Raghavachari, A. P. Rendell, J. C. Burant, S. S. Iyengar, 
 J. Tomasi, M. Cossi, J. M. Millam, M. Klene, C. Adamo, R. Cammi, 
 J. W. Ochterski, R. L. Martin, K. Morokuma, O. Farkas, 
 J. B. Foresman, and D. J. Fox, Gaussian, Inc., Wallingford CT, 2019.
 
 ******************************************
 Gaussian 16:  ES64L-G16RevC.01  3-Jul-2019
                25-Mar-2024 
 ******************************************
 %NProcShared=4
 Will use up to    4 processors via shared memory.
 -------------------------------------------------------
 #n TPSSTPSS/Gen Pseudo=Read EmpiricalDispersion=GD3 opt
 -------------------------------------------------------
 1/18=20,19=15,26=3,38=1/1,3;
 2/9=110,12=2,17=6,18=5,40=1/2;
 3/5=7,11=2,16=1,17=8,25=1,30=1,71=1,74=2523,124=31/1,2,3;
 4//1;
 5/5=2,38=5/2;
 6/7=2,8=2,9=2,10=2,28=1/1;
 7//1,2,3,16;
 1/18=20,19=15,26=3/3(2);
 2/9=110/2;
 99//99;
 2/9=110/2;
 3/5=7,6=1,11=2,16=1,17=8,25=1,30=1,71=1,74=2523,82=7,124=31/1,2,3;
 4/5=5,16=3,69=1/1;
 5/5=2,38=5/2;
 7//1,2,3,16;
 1/18=20,19=15,26=3/3(-5);
 2/9=110/2;
 6/7=2,8=2,9=2,10=2,19=2,28=1/1;
 99/9=1/99;
 -----
 Title
 -----
 Symbolic Z-matrix:
 Charge =  0 Multiplicity = 1
 Ru                   -0.061     8.0745    7.1986 
 Cl                   -2.037     8.0469    5.823 
 Cl                   -0.9122    9.9408    8.4468 
 O                    -1.4641    6.1847    9.0738 
 O                     2.4213    8.1457    8.9538 
 O                     0.9711    5.7363    5.5499 
 O                     0.7878    9.4972    5.8309 
 C                    -0.9076    6.8821    8.3895 
 C                     1.5117    8.121     8.2919 
 C                     0.6084    6.6001    6.1531 
 H                     0.816     10.332    6.1142 
 H                     0.3957    9.5364    5.0913 
 

 GradGradGradGradGradGradGradGradGradGradGradGradGradGradGradGradGradGrad
 Berny optimization.
 Initialization pass.
                           ----------------------------
                           !    Initial Parameters    !
                           ! (Angstroms and Degrees)  !
 --------------------------                            --------------------------
 ! Name  Definition              Value          Derivative Info.                !
 --------------------------------------------------------------------------------
 ! R1    R(1,2)                  2.4078         estimate D2E/DX2                !
 ! R2    R(1,3)                  2.4012         estimate D2E/DX2                !
 ! R3    R(1,7)                  2.1483         estimate D2E/DX2                !
 ! R4    R(1,8)                  1.8859         estimate D2E/DX2                !
 ! R5    R(1,9)                  1.9159         estimate D2E/DX2                !
 ! R6    R(1,10)                 1.9274         estimate D2E/DX2                !
 ! R7    R(4,8)                  1.1244         estimate D2E/DX2                !
 ! R8    R(5,9)                  1.1252         estimate D2E/DX2                !
 ! R9    R(6,10)                 1.1142         estimate D2E/DX2                !
 ! R10   R(7,11)                 0.882          estimate D2E/DX2                !
 ! R11   R(7,12)                 0.838          estimate D2E/DX2                !
 ! A1    A(2,1,3)               90.8579         estimate D2E/DX2                !
 ! A2    A(2,1,7)               88.173          estimate D2E/DX2                !
 ! A3    A(2,1,8)               89.1472         estimate D2E/DX2                !
 ! A4    A(2,1,10)              88.0719         estimate D2E/DX2                !
 ! A5    A(3,1,7)               87.4943         estimate D2E/DX2                !
 ! A6    A(3,1,8)               90.2311         estimate D2E/DX2                !
 ! A7    A(3,1,9)               88.5956         estimate D2E/DX2                !
 ! A8    A(7,1,9)               91.312          estimate D2E/DX2                !
 ! A9    A(7,1,10)              91.3771         estimate D2E/DX2                !
 ! A10   A(8,1,9)               91.3461         estimate D2E/DX2                !
 ! A11   A(8,1,10)              90.8469         estimate D2E/DX2                !
 ! A12   A(9,1,10)              92.4652         estimate D2E/DX2                !
 ! A13   A(1,7,11)             115.7817         estimate D2E/DX2                !
 ! A14   A(1,7,12)             114.0784         estimate D2E/DX2                !
 ! A15   A(11,7,12)            104.7238         estimate D2E/DX2                !
 ! A16   L(2,1,9,3,-1)         179.4534         estimate D2E/DX2                !
 ! A17   L(3,1,10,2,-1)        178.9297         estimate D2E/DX2                !
 ! A18   L(7,1,8,2,-1)         177.3202         estimate D2E/DX2                !
 ! A19   L(1,8,4,6,-1)         180.6668         estimate D2E/DX2                !
 ! A20   L(1,9,5,4,-1)         178.9517         estimate D2E/DX2                !
 ! A21   L(1,10,6,4,-1)        179.0044         estimate D2E/DX2                !
 ! A22   L(2,1,9,3,-2)         180.4914         estimate D2E/DX2                !
 ! A23   L(3,1,10,2,-2)        178.9054         estimate D2E/DX2                !
 ! A24   L(7,1,8,2,-2)         182.3163         estimate D2E/DX2                !
 ! A25   L(1,8,4,6,-2)         183.4978         estimate D2E/DX2                !
 ! A26   L(1,9,5,4,-2)         180.8037         estimate D2E/DX2                !
 ! A27   L(1,10,6,4,-2)        178.8583         estimate D2E/DX2                !
 ! D1    D(2,1,7,11)           105.1001         estimate D2E/DX2                !
 ! D2    D(2,1,7,12)           -16.5685         estimate D2E/DX2                !
 ! D3    D(3,1,7,11)            14.161          estimate D2E/DX2                !
 ! D4    D(3,1,7,12)          -107.5076         estimate D2E/DX2                !
 ! D5    D(9,1,7,11)           -74.3754         estimate D2E/DX2                !
 ! D6    D(9,1,7,12)           163.956          estimate D2E/DX2                !
 ! D7    D(10,1,7,11)         -166.8735         estimate D2E/DX2                !
 ! D8    D(10,1,7,12)           71.4579         estimate D2E/DX2                !
 --------------------------------------------------------------------------------
 Trust Radius=3.00D-01 FncErr=1.00D-07 GrdErr=1.00D-06 EigMax=2.50D+02 EigMin=1.00D-04
 Number of steps in this run=     56 maximum allowed number of steps=    100.
 GradGradGradGradGradGradGradGradGradGradGradGradGradGradGradGradGradGrad

                          Input orientation:                          
 ---------------------------------------------------------------------
 Center     Atomic      Atomic             Coordinates (Angstroms)
 Number     Number       Type             X           Y           Z
 ---------------------------------------------------------------------
      1         44           0       -0.061000    8.074500    7.198600
      2         17           0       -2.037000    8.046900    5.823000
      3         17           0       -0.912200    9.940800    8.446800
      4          8           0       -1.464100    6.184700    9.073800
      5          8           0        2.421300    8.145700    8.953800
      6          8           0        0.971100    5.736300    5.549900
      7          8           0        0.787800    9.497200    5.830900
      8          6           0       -0.907600    6.882100    8.389500
      9          6           0        1.511700    8.121000    8.291900
     10          6           0        0.608400    6.600100    6.153100
     11          1           0        0.816000   10.332000    6.114200
     12          1           0        0.395700    9.536400    5.091300
 ---------------------------------------------------------------------
                    Distance matrix (angstroms):
                    1          2          3          4          5
     1  Ru   0.000000
     2  Cl   2.407823   0.000000
     3  Cl   2.401171   3.425837   0.000000
     4  O    3.009387   3.789948   3.847858   0.000000
     5  O    3.040988   5.448680   3.819903   4.353878   0.000000
     6  O    3.041483   3.802910   5.442120   4.306870   4.415294
     7  O    2.148288   3.175363   3.151145   5.153650   3.774570
     8  C    1.885946   3.036318   3.059240   1.124422   3.605093
     9  C    1.915947   4.323682   3.034956   3.635383   1.125208
    10  C    1.927439   3.033206   4.328228   3.605316   3.676875
    11  H    2.653556   3.666891   2.929289   5.581952   3.926859
    12  H    2.605080   2.944830   3.624020   5.527482   4.577773
                    6          7          8          9         10
     6  O    0.000000
     7  O    3.775835   0.000000
     8  C    3.592450   4.032315   0.000000
     9  C    3.673909   2.911096   2.719818   0.000000
    10  C    1.114250   2.920477   2.716480   2.775528   0.000000
    11  H    4.632812   0.882012   4.477678   3.180393   3.737872
    12  H    3.870679   0.838026   4.429675   3.673235   3.129620
                   11         12
    11  H    0.000000
    12  H    1.362335   0.000000
 Stoichiometry    C3H2Cl2O4Ru
 Framework group  C1[X(C3H2Cl2O4Ru)]
 Deg. of freedom    30
 Full point group                 C1      NOp   1
 Largest Abelian subgroup         C1      NOp   1
 Largest concise Abelian subgroup C1      NOp   1
                         Standard orientation:                         
 ---------------------------------------------------------------------
 Center     Atomic      Atomic             Coordinates (Angstroms)
 Number     Number       Type             X           Y           Z
 ---------------------------------------------------------------------
      1         44           0       -0.009525    0.076371   -0.100564
      2         17           0        1.708250   -1.610297   -0.055723
      3         17           0       -1.716476   -1.607230    0.031437
      4          8           0        0.136266    0.159382    2.904142
      5          8           0       -2.208534    2.175987   -0.160408
      6          8           0        2.204306    2.151831   -0.305607
      7          8           0       -0.081761   -0.151730   -2.235486
      8          6           0        0.063535    0.160756    1.782076
      9          6           0       -1.389494    1.404502   -0.151630
     10          6           0        1.384541    1.399795   -0.242520
     11          1           0       -0.778142   -0.591591   -2.550954
     12          1           0        0.583361   -0.544885   -2.560029
 ---------------------------------------------------------------------
 Rotational constants (GHZ):           0.7769884           0.7449173           0.6407000
 General basis read from cards:  (5D, 7F)
 ======================================================================================================
                                       Pseudopotential Parameters
 ======================================================================================================
  Center     Atomic      Valence      Angular      Power
  Number     Number     Electrons     Momentum     of R      Exponent        Coefficient   SO-Coeffient
 ======================================================================================================
    1         44           16
                                      F and up 
                                                     0      554.3796303       -0.05152700    0.00000000
                                                     1      155.1066871      -20.18165360    0.00000000
                                                     2       48.4976263     -105.99669150    0.00000000
                                                     2       14.7701594      -42.21667880    0.00000000
                                                     2        5.2077363       -3.76750240    0.00000000
                                      S - F
                                                     0       66.7118060        2.95783440    0.00000000
                                                     1       77.3503632       25.37487070    0.00000000
                                                     2       18.3571445      536.12623720    0.00000000
                                                     2       11.8404727     -651.20572210    0.00000000
                                                     2        8.1179479      381.38169430    0.00000000
                                      P - F
                                                     0       54.9937915        4.96515570    0.00000000
                                                     1       13.9399212       23.88615010    0.00000000
                                                     2       15.2118246      464.46313440    0.00000000
                                                     2       10.5460691     -714.44517880    0.00000000
                                                     2        7.5539486      377.55035940    0.00000000
                                      D - F
                                                     0       60.3444595        3.03529880    0.00000000
                                                     1       45.2100305       23.29017230    0.00000000
                                                     2       19.1190074      146.09266200    0.00000000
                                                     2        4.2712090       28.91297700    0.00000000
    2         17
                                   No pseudopotential on this center.
    3         17
                                   No pseudopotential on this center.
    4          8
                                   No pseudopotential on this center.
    5          8
                                   No pseudopotential on this center.
    6          8
                                   No pseudopotential on this center.
    7          8
                                   No pseudopotential on this center.
    8          6
                                   No pseudopotential on this center.
    9          6
                                   No pseudopotential on this center.
   10          6
                                   No pseudopotential on this center.
   11          1
                                   No pseudopotential on this center.
   12          1
                                   No pseudopotential on this center.
 ======================================================================================================
 There are   177 symmetry adapted cartesian basis functions of A   symmetry.
 There are   166 symmetry adapted basis functions of A   symmetry.
   166 basis functions,   363 primitive gaussians,   177 cartesian basis functions
    51 alpha electrons       51 beta electrons
       nuclear repulsion energy       826.8904254709 Hartrees.
 NAtoms=   12 NActive=   12 NUniq=   12 SFac= 1.00D+00 NAtFMM=   60 NAOKFM=F Big=F
 Integral buffers will be    131072 words long.
 Raffenetti 2 integral format.
 Two-electron integral symmetry is turned on.
 Nuclear repulsion after empirical dispersion term =      826.8778517348 Hartrees.
 One-electron integrals computed using PRISM.
   1 Symmetry operations used in ECPInt.
 ECPInt:  NShTT=    1378 NPrTT=    9802 LenC2=    1313 LenP2D=    6327.
 LDataN:  DoStor=T MaxTD1= 5 Len=  102
 NBasis=   166 RedAO= T EigKep=  4.35D-03  NBF=   166
 NBsUse=   166 1.00D-06 EigRej= -1.00D+00 NBFU=   166
 Defaulting to unpruned grid for atomic number  44.
 ExpMin= 2.50D-02 ExpMax= 2.52D+04 ExpMxC= 3.78D+03 IAcc=3 IRadAn=         5 AccDes= 0.00D+00
 Harris functional with IExCor= 1009 and IRadAn=       5 diagonalized for initial guess.
 HarFok:  IExCor= 1009 AccDes= 0.00D+00 IRadAn=         5 IDoV= 1 UseB2=F ITyADJ=14
 ICtDFT=  3500011 ScaDFX=  1.000000  1.000000  1.000000  1.000000
 Defaulting to unpruned grid for atomic number  44.
 FoFCou: FMM=F IPFlag=           0 FMFlag=      100000 FMFlg1=           0
         NFxFlg=           0 DoJE=T BraDBF=F KetDBF=T FulRan=T
         wScrn=  0.000000 ICntrl=       500 IOpCl=  0 I1Cent=   200000004 NGrid=           0
         NMat0=    1 NMatS0=      1 NMatT0=    0 NMatD0=    1 NMtDS0=    0 NMtDT0=    0
 Petite list used in FoFCou.
 Keep J ints in memory in canonical form, NReq=100096595.
 Requested convergence on RMS density matrix=1.00D-08 within 128 cycles.
 Requested convergence on MAX density matrix=1.00D-06.
 Requested convergence on             energy=1.00D-06.
 No special actions if energy rises.
 Defaulting to unpruned grid for atomic number  44.
 Defaulting to unpruned grid for atomic number  44.
 Defaulting to unpruned grid for atomic number  44.
 Defaulting to unpruned grid for atomic number  44.
 EnCoef did   100 forward-backward iterations
 EnCoef did   100 forward-backward iterations
 EnCoef did   100 forward-backward iterations
 SCF Done:  E(RTPSS-TPSS) =  -1430.86081628     A.U. after   17 cycles
            NFock= 17  Conv=0.72D-08     -V/T= 2.0479

 **********************************************************************

            Population analysis using the SCF Density.

 **********************************************************************

 Orbital symmetries:
       Occupied  (A) (A) (A) (A) (A) (A) (A) (A) (A) (A) (A) (A)
                 (A) (A) (A) (A) (A) (A) (A) (A) (A) (A) (A) (A)
                 (A) (A) (A) (A) (A) (A) (A) (A) (A) (A) (A) (A)
                 (A) (A) (A) (A) (A) (A) (A) (A) (A) (A) (A) (A)
                 (A) (A) (A)
       Virtual   (A) (A) (A) (A) (A) (A) (A) (A) (A) (A) (A) (A)
                 (A) (A) (A) (A) (A) (A) (A) (A) (A) (A) (A) (A)
                 (A) (A) (A) (A) (A) (A) (A) (A) (A) (A) (A) (A)
                 (A) (A) (A) (A) (A) (A) (A) (A) (A) (A) (A) (A)
                 (A) (A) (A) (A) (A) (A) (A) (A) (A) (A) (A) (A)
                 (A) (A) (A) (A) (A) (A) (A) (A) (A) (A) (A) (A)
                 (A) (A) (A) (A) (A) (A) (A) (A) (A) (A) (A) (A)
                 (A) (A) (A) (A) (A) (A) (A) (A) (A) (A) (A) (A)
                 (A) (A) (A) (A) (A) (A) (A) (A) (A) (A) (A) (A)
                 (A) (A) (A) (A) (A) (A) (A)
 The electronic state is 1-A.
 Alpha  occ. eigenvalues -- -100.93845-100.93787 -19.03031 -19.02737 -19.02710
 Alpha  occ. eigenvalues --  -18.99298 -10.15659 -10.15173 -10.15118  -9.18889
 Alpha  occ. eigenvalues --   -9.18828  -6.96739  -6.96673  -6.96079  -6.96020
 Alpha  occ. eigenvalues --   -6.95988  -6.95931  -2.86721  -1.78148  -1.77469
 Alpha  occ. eigenvalues --   -1.77440  -1.12535  -1.11633  -1.11577  -1.08801
 Alpha  occ. eigenvalues --   -0.70178  -0.69466  -0.61022  -0.56963  -0.55475
 Alpha  occ. eigenvalues --   -0.55356  -0.49503  -0.47504  -0.47147  -0.46944
 Alpha  occ. eigenvalues --   -0.46367  -0.46119  -0.45206  -0.45181  -0.44957
 Alpha  occ. eigenvalues --   -0.43673  -0.37966  -0.31782  -0.31152  -0.30324
 Alpha  occ. eigenvalues --   -0.30065  -0.28967  -0.24096  -0.23136  -0.22867
 Alpha  occ. eigenvalues --   -0.22522
 Alpha virt. eigenvalues --   -0.11043  -0.09453  -0.07744  -0.06561  -0.06396
 Alpha virt. eigenvalues --   -0.06364  -0.05842  -0.05588  -0.00459   0.01851
 Alpha virt. eigenvalues --    0.02605   0.04528   0.13105   0.14456   0.19530
 Alpha virt. eigenvalues --    0.24050   0.25103   0.28697   0.30662   0.32655
 Alpha virt. eigenvalues --    0.41842   0.42589   0.43090   0.43610   0.44231
 Alpha virt. eigenvalues --    0.44845   0.47123   0.47916   0.52583   0.53012
 Alpha virt. eigenvalues --    0.53995   0.54561   0.57361   0.59032   0.61834
 Alpha virt. eigenvalues --    0.66704   0.67483   0.68289   0.70474   0.70650
 Alpha virt. eigenvalues --    0.73906   0.74362   0.78389   0.80550   0.81027
 Alpha virt. eigenvalues --    0.82239   0.84156   0.86462   0.87242   0.87624
 Alpha virt. eigenvalues --    0.88275   0.89058   0.89369   0.89883   0.92284
 Alpha virt. eigenvalues --    0.98487   0.99885   1.00187   1.01400   1.02089
 Alpha virt. eigenvalues --    1.02449   1.04702   1.05107   1.06222   1.12530
 Alpha virt. eigenvalues --    1.14692   1.20249   1.23560   1.26303   1.39261
 Alpha virt. eigenvalues --    1.39589   1.39966   1.40332   1.41200   1.43891
 Alpha virt. eigenvalues --    1.44538   1.45306   1.47233   1.47736   1.50834
 Alpha virt. eigenvalues --    1.57791   1.58993   1.64042   1.66242   1.72184
 Alpha virt. eigenvalues --    1.75474   1.77602   1.80558   1.88447   1.89449
 Alpha virt. eigenvalues --    1.89654   1.91095   1.94419   2.04643   2.28472
 Alpha virt. eigenvalues --    2.31844   2.37658   2.39096   2.39860   2.53415
 Alpha virt. eigenvalues --    2.54206   2.54682   2.55013   2.55955   2.56049
 Alpha virt. eigenvalues --    2.61901   2.66737   2.72131   2.95442   2.99723
 Alpha virt. eigenvalues --    3.00387   3.14869   3.57321   3.74501  10.28435
          Condensed to atoms (all electrons):
               1          2          3          4          5          6
     1  Ru  15.327289   0.207541   0.209049   0.001292   0.003312   0.002501
     2  Cl   0.207541  17.045814  -0.019447   0.000232   0.000015   0.000665
     3  Cl   0.209049  -0.019447  17.041223   0.000279   0.000723   0.000014
     4  O    0.001292   0.000232   0.000279   7.562497   0.000021   0.000025
     5  O    0.003312   0.000015   0.000723   0.000021   7.578433   0.000019
     6  O    0.002501   0.000665   0.000014   0.000025   0.000019   7.555868
     7  O    0.079325  -0.011520  -0.012470   0.000001   0.000134   0.000122
     8  C    0.143364   0.015584   0.015648   0.628542  -0.000637  -0.000652
     9  C    0.071248  -0.007709  -0.017438  -0.000921   0.616159  -0.001010
    10  C    0.072384  -0.017732  -0.007657  -0.001027  -0.000984   0.629355
    11  H   -0.016212  -0.000774   0.007934  -0.000000   0.000007  -0.000015
    12  H   -0.017649   0.006972  -0.000935  -0.000000  -0.000017   0.000015
               7          8          9         10         11         12
     1  Ru   0.079325   0.143364   0.071248   0.072384  -0.016212  -0.017649
     2  Cl  -0.011520   0.015584  -0.007709  -0.017732  -0.000774   0.006972
     3  Cl  -0.012470   0.015648  -0.017438  -0.007657   0.007934  -0.000935
     4  O    0.000001   0.628542  -0.000921  -0.001027  -0.000000  -0.000000
     5  O    0.000134  -0.000637   0.616159  -0.000984   0.000007  -0.000017
     6  O    0.000122  -0.000652  -0.001010   0.629355  -0.000015   0.000015
     7  O    7.724353  -0.002517  -0.001718  -0.001385   0.325086   0.336732
     8  C   -0.002517   4.958841  -0.051012  -0.050860   0.000157   0.000175
     9  C   -0.001718  -0.051012   5.182236  -0.044553  -0.001671   0.000559
    10  C   -0.001385  -0.050860  -0.044553   5.166875   0.000541  -0.001891
    11  H    0.325086   0.000157  -0.001671   0.000541   0.354784  -0.014875
    12  H    0.336732   0.000175   0.000559  -0.001891  -0.014875   0.360895
 Mulliken charges:
               1
     1  Ru  -0.083444
     2  Cl  -0.219640
     3  Cl  -0.216925
     4  O   -0.190941
     5  O   -0.197185
     6  O   -0.186908
     7  O   -0.436144
     8  C    0.343367
     9  C    0.255828
    10  C    0.256935
    11  H    0.345039
    12  H    0.330018
 Sum of Mulliken charges =  -0.00000
 Mulliken charges with hydrogens summed into heavy atoms:
               1
     1  Ru  -0.083444
     2  Cl  -0.219640
     3  Cl  -0.216925
     4  O   -0.190941
     5  O   -0.197185
     6  O   -0.186908
     7  O    0.238913
     8  C    0.343367
     9  C    0.255828
    10  C    0.256935
 Electronic spatial extent (au):  <R**2>=           2084.8743
 Charge=             -0.0000 electrons
 Dipole moment (field-independent basis, Debye):
    X=             -0.0503    Y=              4.5835    Z=             -3.0558  Tot=              5.5090
 Quadrupole moment (field-independent basis, Debye-Ang):
   XX=            -91.8557   YY=            -91.1042   ZZ=            -71.3268
   XY=              0.4814   XZ=              0.6482   YZ=              4.5734
 Traceless Quadrupole moment (field-independent basis, Debye-Ang):
   XX=             -7.0935   YY=             -6.3419   ZZ=             13.4354
   XY=              0.4814   XZ=              0.6482   YZ=              4.5734
 Octapole moment (field-independent basis, Debye-Ang**2):
  XXX=             -0.1544  YYY=             24.8425  ZZZ=            -44.1352  XYY=              0.2676
  XXY=             13.0780  XXZ=             -6.2707  XZZ=             -1.6248  YZZ=             -6.8421
  YYZ=             -3.6136  XYZ=             -0.9139
 Hexadecapole moment (field-independent basis, Debye-Ang**3):
 XXXX=          -1000.9825 YYYY=           -927.0139 ZZZZ=           -559.8616 XXXY=              1.6230
 XXXZ=              4.1390 YYYX=              1.9306 YYYZ=              3.8242 ZZZX=              2.9674
 ZZZY=             36.2211 XXYY=           -340.2921 XXZZ=           -250.5935 YYZZ=           -246.5371
 XXYZ=              4.1929 YYXZ=              1.8131 ZZXY=              1.8344
 N-N= 8.268778517348D+02 E-N=-5.015789683306D+03  KE= 1.365488674146D+03
   1 Symmetry operations used in ECPInt.
 ECPInt:  NShTT=    1378 NPrTT=    9802 LenC2=    1313 LenP2D=    6327.
 LDataN:  DoStor=T MaxTD1= 6 Len=  172
 Calling FoFJK, ICntrl=      2527 FMM=F ISym2X=0 I1Cent= 0 IOpClX= 0 NMat=1 NMatS=1 NMatT=0.
 Defaulting to unpruned grid for atomic number  44.
 Defaulting to unpruned grid for atomic number  44.
 Defaulting to unpruned grid for atomic number  44.
 Defaulting to unpruned grid for atomic number  44.
 ***** Axes restored to original set *****
 -------------------------------------------------------------------
 Center     Atomic                   Forces (Hartrees/Bohr)
 Number     Number              X              Y              Z
 -------------------------------------------------------------------
      1       44           0.002818290   -0.015524641    0.009259474
      2       17          -0.001049292    0.002186330   -0.004308478
      3       17           0.000142911    0.005033757    0.000149800
      4        8          -0.032845818   -0.043912490    0.043874816
      5        8           0.061015597    0.000446720    0.043921994
      6        8           0.034470494   -0.080402384   -0.054933009
      7        8           0.100574639   -0.105287174    0.130723284
      8        6           0.024211663    0.042872192   -0.040521380
      9        6          -0.053769194    0.005435780   -0.037946555
     10        6          -0.034689584    0.076958738    0.046609139
     11        1           0.004023998    0.114044172    0.053024016
     12        1          -0.104903705   -0.001850998   -0.189853100
 -------------------------------------------------------------------
 Cartesian Forces:  Max     0.189853100 RMS     0.062481112

 GradGradGradGradGradGradGradGradGradGradGradGradGradGradGradGradGradGrad
 Berny optimization.
 FormGI is forming the generalized inverse of G from B-inverse, IUseBI=4.
 Internal  Forces:  Max     0.216550330 RMS     0.042997838
 Search for a local minimum.
 Step number   1 out of a maximum of   56
 All quantities printed in internal units (Hartrees-Bohrs-Radians)
 Mixed Optimization -- RFO/linear search
 Second derivative matrix not updated -- first step.
 ITU=  0
     Eigenvalues ---    0.00230   0.02306   0.05327   0.05327   0.05337
     Eigenvalues ---    0.05337   0.05472   0.05472   0.08473   0.08485
     Eigenvalues ---    0.12029   0.12217   0.12403   0.12469   0.12529
     Eigenvalues ---    0.12696   0.12798   0.16000   0.16000   0.16752
     Eigenvalues ---    0.22089   0.22829   0.24924   0.24999   0.25000
     Eigenvalues ---    0.76297   0.92811   1.53560   1.54219   1.63098
 RFO step:  Lambda=-8.31200355D-02 EMin= 2.30000000D-03
 Linear search not attempted -- first point.
 Maximum step size (   0.300) exceeded in Quadratic search.
    -- Step size scaled by   0.951
 Iteration  1 RMS(Cart)=  0.06011143 RMS(Int)=  0.00167958
 Iteration  2 RMS(Cart)=  0.00237669 RMS(Int)=  0.00028642
 Iteration  3 RMS(Cart)=  0.00000654 RMS(Int)=  0.00028634
 Iteration  4 RMS(Cart)=  0.00000000 RMS(Int)=  0.00028634
 Variable       Old X    -DE/DX   Delta X   Delta X   Delta X     New X
                                 (Linear)    (Quad)   (Total)
    R1        4.55013   0.00330   0.00000   0.01541   0.01541   4.56554
    R2        4.53755   0.00394   0.00000   0.01825   0.01825   4.55580
    R3        4.05968   0.00834   0.00000   0.03816   0.03816   4.09783
    R4        3.56392   0.00667   0.00000   0.01907   0.01907   3.58299
    R5        3.62061   0.00950   0.00000   0.02901   0.02901   3.64963
    R6        3.64233   0.00706   0.00000   0.02209   0.02209   3.66443
    R7        2.12485   0.07019   0.00000   0.04106   0.04106   2.16591
    R8        2.12634   0.07517   0.00000   0.04415   0.04415   2.17049
    R9        2.10563   0.10328   0.00000   0.05728   0.05728   2.16291
   R10        1.66676   0.12510   0.00000   0.14058   0.14058   1.80734
   R11        1.58364   0.21655   0.00000   0.20360   0.20360   1.78724
    A1        1.58577   0.00012   0.00000  -0.00325  -0.00373   1.58204
    A2        1.53891  -0.00929   0.00000  -0.03960  -0.03967   1.49924
    A3        1.55591   0.00080   0.00000   0.00045   0.00042   1.55633
    A4        1.53714  -0.00255   0.00000  -0.01008  -0.01012   1.52703
    A5        1.52706  -0.00808   0.00000  -0.03520  -0.03530   1.49176
    A6        1.57483   0.00011   0.00000  -0.00162  -0.00166   1.57317
    A7        1.54628  -0.00266   0.00000  -0.01061  -0.01064   1.53565
    A8        1.59370   0.00246   0.00000   0.00872   0.00846   1.60216
    A9        1.59483   0.00181   0.00000   0.00689   0.00665   1.60148
   A10        1.59429   0.00587   0.00000   0.02955   0.02941   1.62370
   A11        1.58558   0.00589   0.00000   0.02858   0.02845   1.61403
   A12        1.61382   0.00491   0.00000   0.02313   0.02283   1.63665
   A13        2.02077  -0.01267   0.00000  -0.05011  -0.05064   1.97013
   A14        1.99104  -0.00963   0.00000  -0.03824  -0.03878   1.95226
   A15        1.82777   0.01309   0.00000   0.05022   0.04927   1.87705
   A16        3.13205  -0.00254   0.00000  -0.01387  -0.01436   3.11769
   A17        3.12291  -0.00243   0.00000  -0.01334  -0.01384   3.10907
   A18        3.09482  -0.00850   0.00000  -0.03915  -0.03925   3.05557
   A19        3.15323  -0.00051   0.00000  -0.00357  -0.00357   3.14966
   A20        3.12330  -0.00095   0.00000  -0.00663  -0.00663   3.11666
   A21        3.12422  -0.00082   0.00000  -0.00566  -0.00566   3.11856
   A22        3.15017   0.00666   0.00000   0.02998   0.02984   3.18000
   A23        3.12249  -0.00602   0.00000  -0.02717  -0.02702   3.09547
   A24        3.18202   0.00812   0.00000   0.03733   0.03741   3.21943
   A25        3.20264  -0.00401   0.00000  -0.02794  -0.02794   3.17470
   A26        3.15562  -0.00211   0.00000  -0.01468  -0.01468   3.14094
   A27        3.12167   0.00226   0.00000   0.01557   0.01557   3.13723
    D1        1.83434   0.00016   0.00000  -0.00208  -0.00143   1.83292
    D2       -0.28917   0.00062   0.00000   0.00199   0.00228  -0.28689
    D3        0.24716  -0.00063   0.00000  -0.00173  -0.00202   0.24513
    D4       -1.87636  -0.00018   0.00000   0.00235   0.00168  -1.87468
    D5       -1.29810   0.00234   0.00000   0.01013   0.01020  -1.28790
    D6        2.86157   0.00279   0.00000   0.01420   0.01390   2.87547
    D7       -2.91249  -0.00268   0.00000  -0.01339  -0.01308  -2.92558
    D8        1.24718  -0.00223   0.00000  -0.00932  -0.00938   1.23780
         Item               Value     Threshold  Converged?
 Maximum Force            0.216550     0.000450     NO 
 RMS     Force            0.042998     0.000300     NO 
 Maximum Displacement     0.170005     0.001800     NO 
 RMS     Displacement     0.060830     0.001200     NO 
 Predicted change in Energy=-4.522453D-02
 GradGradGradGradGradGradGradGradGradGradGradGradGradGradGradGradGradGrad

                          Input orientation:                          
 ---------------------------------------------------------------------
 Center     Atomic      Atomic             Coordinates (Angstroms)
 Number     Number       Type             X           Y           Z
 ---------------------------------------------------------------------
      1         44           0       -0.038032    8.049280    7.208389
      2         17           0       -1.994361    8.064868    5.790823
      3         17           0       -0.872745    9.954296    8.427506
      4          8           0       -1.520346    6.190032    9.105504
      5          8           0        2.469798    8.142065    8.993442
      6          8           0        0.996710    5.688425    5.516160
      7          8           0        0.781674    9.507888    5.828949
      8          6           0       -0.943987    6.884629    8.399101
      9          6           0        1.542431    8.118736    8.316194
     10          6           0        0.622676    6.575122    6.135750
     11          1           0        0.780545   10.396294    6.183121
     12          1           0        0.305737    9.526065    5.011862
 ---------------------------------------------------------------------
                    Distance matrix (angstroms):
                    1          2          3          4          5
     1  Ru   0.000000
     2  Cl   2.415980   0.000000
     3  Cl   2.410826   3.432209   0.000000
     4  O    3.041892   3.837553   3.879272   0.000000
     5  O    3.079649   5.494674   3.844095   4.443449   0.000000
     6  O    3.083499   3.830069   5.492582   4.412547   4.503535
     7  O    2.168480   3.128918   3.112697   5.200315   3.837870
     8  C    1.896039   3.049486   3.070625   1.146150   3.686233
     9  C    1.931300   4.346182   3.035580   3.704526   1.148573
    10  C    1.939131   3.031039   4.348247   3.682427   3.746141
    11  H    2.688813   3.645483   2.822409   5.614896   3.979074
    12  H    2.669045   2.834136   3.638520   5.587629   4.738311
                    6          7          8          9         10
     6  O    0.000000
     7  O    3.838277   0.000000
     8  C    3.675399   4.057718   0.000000
     9  C    3.747588   2.948708   2.777079   0.000000
    10  C    1.144563   2.953053   2.770015   2.825426   0.000000
    11  H    4.759790   0.956402   4.496262   3.212124   3.824725
    12  H    3.931824   0.945768   4.473520   3.798499   3.173585
                   11         12
    11  H    0.000000
    12  H    1.534467   0.000000
 Stoichiometry    C3H2Cl2O4Ru
 Framework group  C1[X(C3H2Cl2O4Ru)]
 Deg. of freedom    30
 Full point group                 C1      NOp   1
 Largest Abelian subgroup         C1      NOp   1
 Largest concise Abelian subgroup C1      NOp   1
                         Standard orientation:                         
 ---------------------------------------------------------------------
 Center     Atomic      Atomic             Coordinates (Angstroms)
 Number     Number       Type             X           Y           Z
 ---------------------------------------------------------------------
      1         44           0       -0.007359    0.088488   -0.087969
      2         17           0        1.708568   -1.611449   -0.035358
      3         17           0       -1.723171   -1.601568    0.020566
      4          8           0        0.092949    0.176949    2.950981
      5          8           0       -2.246013    2.197802   -0.241143
      6          8           0        2.256333    2.166992   -0.339926
      7          8           0       -0.054355   -0.245588   -2.230045
      8          6           0        0.046189    0.162164    1.805881
      9          6           0       -1.411357    1.409747   -0.201920
     10          6           0        1.413380    1.396586   -0.262929
     11          1           0       -0.821266   -0.742548   -2.512149
     12          1           0        0.712737   -0.709841   -2.530904
 ---------------------------------------------------------------------
 Rotational constants (GHZ):           0.7663730           0.7294049           0.6307677
 Basis read from rwf:  (5D, 7F)
 Pseudo-potential data read from rwf file.
 There are   177 symmetry adapted cartesian basis functions of A   symmetry.
 There are   166 symmetry adapted basis functions of A   symmetry.
   166 basis functions,   363 primitive gaussians,   177 cartesian basis functions
    51 alpha electrons       51 beta electrons
       nuclear repulsion energy       819.3300968604 Hartrees.
 NAtoms=   12 NActive=   12 NUniq=   12 SFac= 1.00D+00 NAtFMM=   60 NAOKFM=F Big=F
 Integral buffers will be    131072 words long.
 Raffenetti 2 integral format.
 Two-electron integral symmetry is turned on.
 Nuclear repulsion after empirical dispersion term =      819.3175690061 Hartrees.
 One-electron integrals computed using PRISM.
   1 Symmetry operations used in ECPInt.
 ECPInt:  NShTT=    1378 NPrTT=    9802 LenC2=    1310 LenP2D=    6273.
 LDataN:  DoStor=T MaxTD1= 5 Len=  102
 NBasis=   166 RedAO= T EigKep=  4.56D-03  NBF=   166
 NBsUse=   166 1.00D-06 EigRej= -1.00D+00 NBFU=   166
 Defaulting to unpruned grid for atomic number  44.
 Initial guess from the checkpoint file:  "/scratch/gameelka/Gau-57601.chk"
 B after Tr=     0.000000   -0.000000    0.000000
         Rot=    0.999948    0.008392    0.005817    0.000792 Ang=   1.17 deg.
 ExpMin= 2.50D-02 ExpMax= 2.52D+04 ExpMxC= 3.78D+03 IAcc=3 IRadAn=         5 AccDes= 0.00D+00
 Harris functional with IExCor= 1009 and IRadAn=       5 diagonalized for initial guess.
 HarFok:  IExCor= 1009 AccDes= 0.00D+00 IRadAn=         5 IDoV= 1 UseB2=F ITyADJ=14
 ICtDFT=  3500011 ScaDFX=  1.000000  1.000000  1.000000  1.000000
 Defaulting to unpruned grid for atomic number  44.
 FoFCou: FMM=F IPFlag=           0 FMFlag=      100000 FMFlg1=           0
         NFxFlg=           0 DoJE=T BraDBF=F KetDBF=T FulRan=T
         wScrn=  0.000000 ICntrl=       500 IOpCl=  0 I1Cent=   200000004 NGrid=           0
         NMat0=    1 NMatS0=      1 NMatT0=    0 NMatD0=    1 NMtDS0=    0 NMtDT0=    0
 Petite list used in FoFCou.
 Keep J ints in memory in canonical form, NReq=100096595.
 Requested convergence on RMS density matrix=1.00D-08 within 128 cycles.
 Requested convergence on MAX density matrix=1.00D-06.
 Requested convergence on             energy=1.00D-06.
 No special actions if energy rises.
 Defaulting to unpruned grid for atomic number  44.
 Defaulting to unpruned grid for atomic number  44.
 Defaulting to unpruned grid for atomic number  44.
 Defaulting to unpruned grid for atomic number  44.
 EnCoef did     6 forward-backward iterations
 SCF Done:  E(RTPSS-TPSS) =  -1430.90458852     A.U. after   13 cycles
            NFock= 13  Conv=0.68D-08     -V/T= 2.0486
   1 Symmetry operations used in ECPInt.
 ECPInt:  NShTT=    1378 NPrTT=    9802 LenC2=    1310 LenP2D=    6273.
 LDataN:  DoStor=T MaxTD1= 6 Len=  172
 Calling FoFJK, ICntrl=      2527 FMM=F ISym2X=0 I1Cent= 0 IOpClX= 0 NMat=1 NMatS=1 NMatT=0.
 Defaulting to unpruned grid for atomic number  44.
 Defaulting to unpruned grid for atomic number  44.
 Defaulting to unpruned grid for atomic number  44.
 Defaulting to unpruned grid for atomic number  44.
 ***** Axes restored to original set *****
 -------------------------------------------------------------------
 Center     Atomic                   Forces (Hartrees/Bohr)
 Number     Number              X              Y              Z
 -------------------------------------------------------------------
      1       44           0.001177745   -0.006699099    0.002457450
      2       17           0.000249892    0.001216290   -0.002524441
      3       17           0.000788086    0.002537203   -0.000167194
      4        8          -0.008570697   -0.009466537    0.010535417
      5        8           0.013830652    0.000662688    0.009424613
      6        8           0.008487325   -0.018964308   -0.013771306
      7        8           0.027529716   -0.016389122    0.012356221
      8        6           0.007391617    0.009304733   -0.009852256
      9        6          -0.013351500    0.001055658   -0.007466321
     10        6          -0.010048795    0.019297050    0.012711537
     11        1          -0.005617001    0.017922222    0.011571247
     12        1          -0.021867041   -0.000476779   -0.025274966
 -------------------------------------------------------------------
 Cartesian Forces:  Max     0.027529716 RMS     0.011942717

 GradGradGradGradGradGradGradGradGradGradGradGradGradGradGradGradGradGrad
 Berny optimization.
 Using GEDIIS/GDIIS optimizer.
 FormGI is forming the generalized inverse of G from B-inverse, IUseBI=4.
 Internal  Forces:  Max     0.032831199 RMS     0.008111821
 Search for a local minimum.
 Step number   2 out of a maximum of   56
 All quantities printed in internal units (Hartrees-Bohrs-Radians)
 Mixed Optimization -- RFO/linear search
 Update second derivatives using D2CorX and points    1    2
 DE= -4.38D-02 DEPred=-4.52D-02 R= 9.68D-01
 TightC=F SS=  1.41D+00  RLast= 3.01D-01 DXNew= 5.0454D-01 9.0285D-01
 Trust test= 9.68D-01 RLast= 3.01D-01 DXMaxT set to 5.05D-01
 ITU=  1  0
 Use linear search instead of GDIIS.
     Eigenvalues ---    0.00230   0.02625   0.05326   0.05329   0.05336
     Eigenvalues ---    0.05352   0.05471   0.05477   0.08442   0.08486
     Eigenvalues ---    0.12030   0.12218   0.12273   0.12457   0.12503
     Eigenvalues ---    0.12758   0.12876   0.15870   0.16000   0.16762
     Eigenvalues ---    0.22123   0.22859   0.24913   0.24972   0.24995
     Eigenvalues ---    0.76081   0.92176   1.50288   1.53925   1.60876
 RFO step:  Lambda=-6.98721770D-03 EMin= 2.29999595D-03
 Quartic linear search produced a step of  0.35496.
 Iteration  1 RMS(Cart)=  0.08985956 RMS(Int)=  0.00768379
 Iteration  2 RMS(Cart)=  0.00787733 RMS(Int)=  0.00457955
 Iteration  3 RMS(Cart)=  0.00017753 RMS(Int)=  0.00457784
 Iteration  4 RMS(Cart)=  0.00000497 RMS(Int)=  0.00457784
 Iteration  5 RMS(Cart)=  0.00000014 RMS(Int)=  0.00457784
 Variable       Old X    -DE/DX   Delta X   Delta X   Delta X     New X
                                 (Linear)    (Quad)   (Total)
    R1        4.56554   0.00129   0.00547   0.01600   0.02147   4.58701
    R2        4.55580   0.00165   0.00648   0.01987   0.02635   4.58215
    R3        4.09783   0.00158   0.01354   0.02142   0.03497   4.13280
    R4        3.58299   0.00109   0.00677   0.00400   0.01077   3.59376
    R5        3.64963   0.00158   0.01030   0.00700   0.01730   3.66693
    R6        3.66443  -0.00020   0.00784  -0.00256   0.00528   3.66971
    R7        2.16591   0.01654   0.01457   0.00239   0.01697   2.18288
    R8        2.17049   0.01674   0.01567   0.00173   0.01740   2.18789
    R9        2.16291   0.02492   0.02033   0.00365   0.02398   2.18689
   R10        1.80734   0.02094   0.04990   0.00120   0.05110   1.85844
   R11        1.78724   0.03283   0.07227  -0.00692   0.06535   1.85259
    A1        1.58204   0.00053  -0.00132  -0.00306  -0.00589   1.57615
    A2        1.49924  -0.00573  -0.01408  -0.05129  -0.06547   1.43377
    A3        1.55633   0.00230   0.00015   0.00935   0.00936   1.56569
    A4        1.52703  -0.00144  -0.00359  -0.01270  -0.01619   1.51083
    A5        1.49176  -0.00503  -0.01253  -0.04714  -0.05973   1.43203
    A6        1.57317   0.00138  -0.00059   0.00293   0.00227   1.57544
    A7        1.53565  -0.00166  -0.00378  -0.01567  -0.01937   1.51627
    A8        1.60216   0.00241   0.00300   0.01412   0.01634   1.61850
    A9        1.60148   0.00208   0.00236   0.01416   0.01577   1.61725
   A10        1.62370   0.00086   0.01044   0.02551   0.03555   1.65925
   A11        1.61403   0.00140   0.01010   0.02751   0.03726   1.65129
   A12        1.63665   0.00232   0.00810   0.02856   0.03578   1.67243
   A13        1.97013  -0.00832  -0.01798  -0.11099  -0.13737   1.83276
   A14        1.95226  -0.00646  -0.01377  -0.09618  -0.11833   1.83393
   A15        1.87705   0.00468   0.01749  -0.03531  -0.04172   1.83533
   A16        3.11769  -0.00113  -0.00510  -0.01874  -0.02526   3.09243
   A17        3.10907  -0.00092  -0.00491  -0.01576  -0.02208   3.08699
   A18        3.05557  -0.00343  -0.01393  -0.04193  -0.05611   2.99946
   A19        3.14966   0.00151  -0.00127   0.03139   0.03012   3.17979
   A20        3.11666   0.00137  -0.00235   0.02610   0.02374   3.14041
   A21        3.11856   0.00119  -0.00201   0.02239   0.02039   3.13894
   A22        3.18000   0.00313   0.01059   0.03479   0.04484   3.22485
   A23        3.09547  -0.00272  -0.00959  -0.03041  -0.03945   3.05602
   A24        3.21943   0.00378   0.01328   0.04484   0.05838   3.27781
   A25        3.17470   0.00010  -0.00992  -0.01709  -0.02701   3.14769
   A26        3.14094  -0.00014  -0.00521  -0.01330  -0.01851   3.12243
   A27        3.13723   0.00016   0.00553   0.01388   0.01941   3.15665
    D1        1.83292  -0.00170  -0.00051  -0.08887  -0.08245   1.75047
    D2       -0.28689   0.00303   0.00081   0.10931   0.10625  -0.18064
    D3        0.24513  -0.00305  -0.00072  -0.09336  -0.09018   0.15495
    D4       -1.87468   0.00167   0.00060   0.10482   0.09852  -1.77616
    D5       -1.28790  -0.00102   0.00362  -0.07487  -0.06615  -1.35405
    D6        2.87547   0.00371   0.00493   0.12331   0.12255   2.99802
    D7       -2.92558  -0.00349  -0.00464  -0.10439  -0.10336  -3.02894
    D8        1.23780   0.00123  -0.00333   0.09379   0.08533   1.32313
         Item               Value     Threshold  Converged?
 Maximum Force            0.032831     0.000450     NO 
 RMS     Force            0.008112     0.000300     NO 
 Maximum Displacement     0.273520     0.001800     NO 
 RMS     Displacement     0.092553     0.001200     NO 
 Predicted change in Energy=-2.466830D-03
 GradGradGradGradGradGradGradGradGradGradGradGradGradGradGradGradGradGrad

                          Input orientation:                          
 ---------------------------------------------------------------------
 Center     Atomic      Atomic             Coordinates (Angstroms)
 Number     Number       Type             X           Y           Z
 ---------------------------------------------------------------------
      1         44           0        0.010498    8.008715    7.208384
      2         17           0       -1.900257    8.100887    5.714228
      3         17           0       -0.786744    9.981752    8.370726
      4          8           0       -1.600723    6.262285    9.130653
      5          8           0        2.526696    8.149265    9.010470
      6          8           0        1.037747    5.657166    5.470700
      7          8           0        0.787515    9.511144    5.822075
      8          6           0       -0.981358    6.899445    8.392590
      9          6           0        1.582725    8.106436    8.341484
     10          6           0        0.648045    6.537227    6.113243
     11          1           0        0.644960   10.372785    6.274200
     12          1           0        0.160997    9.510593    5.068045
 ---------------------------------------------------------------------
                    Distance matrix (angstroms):
                    1          2          3          4          5
     1  Ru   0.000000
     2  Cl   2.427341   0.000000
     3  Cl   2.424770   3.440138   0.000000
     4  O    3.056332   3.891290   3.882588   0.000000
     5  O    3.098148   5.519554   3.840074   4.539904   0.000000
     6  O    3.099124   3.829223   5.517333   4.552247   4.577936
     7  O    2.186984   3.037199   3.032389   5.215885   3.878830
     8  C    1.901736   3.075949   3.088522   1.155130   3.774953
     9  C    1.940455   4.362760   3.021928   3.762715   1.157782
    10  C    1.941926   3.016304   4.361147   3.773237   3.810764
    11  H    2.619937   3.457343   2.568677   5.486222   3.996517
    12  H    2.619034   2.579456   3.468128   5.491808   4.795046
                    6          7          8          9         10
     6  O    0.000000
     7  O    3.878044   0.000000
     8  C    3.762643   4.069082   0.000000
     9  C    3.812785   2.992154   2.834424   0.000000
    10  C    1.157254   2.991389   2.825168   2.881163   0.000000
    11  H    4.799683   0.983445   4.381389   3.207710   3.838935
    12  H    3.972370   0.980351   4.379003   3.835150   3.189132
                   11         12
    11  H    0.000000
    12  H    1.559617   0.000000
 Stoichiometry    C3H2Cl2O4Ru
 Framework group  C1[X(C3H2Cl2O4Ru)]
 Deg. of freedom    30
 Full point group                 C1      NOp   1
 Largest Abelian subgroup         C1      NOp   1
 Largest concise Abelian subgroup C1      NOp   1
                         Standard orientation:                         
 ---------------------------------------------------------------------
 Center     Atomic      Atomic             Coordinates (Angstroms)
 Number     Number       Type             X           Y           Z
 ---------------------------------------------------------------------
      1         44           0       -0.001858    0.115835   -0.064016
      2         17           0        1.727655   -1.586875   -0.024728
      3         17           0       -1.712430   -1.602489   -0.035520
      4          8           0       -0.019582    0.141625    2.992156
      5          8           0       -2.293181    2.178818   -0.368101
      6          8           0        2.284739    2.186833   -0.358990
      7          8           0        0.004541   -0.352838   -2.200183
      8          6           0        0.005087    0.152925    1.837345
      9          6           0       -1.444425    1.399500   -0.255243
     10          6           0        1.436725    1.406854   -0.250633
     11          1           0       -0.766437   -0.948873   -2.332471
     12          1           0        0.792910   -0.919871   -2.334478
 ---------------------------------------------------------------------
 Rotational constants (GHZ):           0.7639112           0.7181757           0.6246987
 Basis read from rwf:  (5D, 7F)
 Pseudo-potential data read from rwf file.
 There are   177 symmetry adapted cartesian basis functions of A   symmetry.
 There are   166 symmetry adapted basis functions of A   symmetry.
   166 basis functions,   363 primitive gaussians,   177 cartesian basis functions
    51 alpha electrons       51 beta electrons
       nuclear repulsion energy       816.4818802901 Hartrees.
 NAtoms=   12 NActive=   12 NUniq=   12 SFac= 1.00D+00 NAtFMM=   60 NAOKFM=F Big=F
 Integral buffers will be    131072 words long.
 Raffenetti 2 integral format.
 Two-electron integral symmetry is turned on.
 Nuclear repulsion after empirical dispersion term =      816.4695518942 Hartrees.
 One-electron integrals computed using PRISM.
   1 Symmetry operations used in ECPInt.
 ECPInt:  NShTT=    1378 NPrTT=    9802 LenC2=    1313 LenP2D=    6259.
 LDataN:  DoStor=T MaxTD1= 5 Len=  102
 NBasis=   166 RedAO= T EigKep=  4.67D-03  NBF=   166
 NBsUse=   166 1.00D-06 EigRej= -1.00D+00 NBFU=   166
 Defaulting to unpruned grid for atomic number  44.
 Initial guess from the checkpoint file:  "/scratch/gameelka/Gau-57601.chk"
 B after Tr=     0.000000    0.000000    0.000000
         Rot=    0.999895    0.005555    0.012703   -0.004104 Ang=   1.66 deg.
 ExpMin= 2.50D-02 ExpMax= 2.52D+04 ExpMxC= 3.78D+03 IAcc=3 IRadAn=         5 AccDes= 0.00D+00
 Harris functional with IExCor= 1009 and IRadAn=       5 diagonalized for initial guess.
 HarFok:  IExCor= 1009 AccDes= 0.00D+00 IRadAn=         5 IDoV= 1 UseB2=F ITyADJ=14
 ICtDFT=  3500011 ScaDFX=  1.000000  1.000000  1.000000  1.000000
 Defaulting to unpruned grid for atomic number  44.
 FoFCou: FMM=F IPFlag=           0 FMFlag=      100000 FMFlg1=           0
         NFxFlg=           0 DoJE=T BraDBF=F KetDBF=T FulRan=T
         wScrn=  0.000000 ICntrl=       500 IOpCl=  0 I1Cent=   200000004 NGrid=           0
         NMat0=    1 NMatS0=      1 NMatT0=    0 NMatD0=    1 NMtDS0=    0 NMtDT0=    0
 Petite list used in FoFCou.
 Keep J ints in memory in canonical form, NReq=100096595.
 Requested convergence on RMS density matrix=1.00D-08 within 128 cycles.
 Requested convergence on MAX density matrix=1.00D-06.
 Requested convergence on             energy=1.00D-06.
 No special actions if energy rises.
 Defaulting to unpruned grid for atomic number  44.
 Defaulting to unpruned grid for atomic number  44.
 Defaulting to unpruned grid for atomic number  44.
 Defaulting to unpruned grid for atomic number  44.
 EnCoef did     3 forward-backward iterations
 SCF Done:  E(RTPSS-TPSS) =  -1430.91059127     A.U. after   13 cycles
            NFock= 13  Conv=0.52D-08     -V/T= 2.0488
   1 Symmetry operations used in ECPInt.
 ECPInt:  NShTT=    1378 NPrTT=    9802 LenC2=    1313 LenP2D=    6259.
 LDataN:  DoStor=T MaxTD1= 6 Len=  172
 Calling FoFJK, ICntrl=      2527 FMM=F ISym2X=0 I1Cent= 0 IOpClX= 0 NMat=1 NMatS=1 NMatT=0.
 Defaulting to unpruned grid for atomic number  44.
 Defaulting to unpruned grid for atomic number  44.
 Defaulting to unpruned grid for atomic number  44.
 Defaulting to unpruned grid for atomic number  44.
 ***** Axes restored to original set *****
 -------------------------------------------------------------------
 Center     Atomic                   Forces (Hartrees/Bohr)
 Number     Number              X              Y              Z
 -------------------------------------------------------------------
      1       44          -0.004390070    0.004952296   -0.004877911
      2       17           0.000450189   -0.000279619   -0.000615502
      3       17           0.000736853    0.000213689    0.000342914
      4        8          -0.000116928    0.002182615   -0.003391661
      5        8          -0.004422032    0.001384979   -0.002776643
      6        8          -0.002263176    0.003722019    0.001137578
      7        8           0.010621861    0.002392884   -0.003164593
      8        6           0.004171411   -0.003496238    0.004843647
      9        6           0.001654024   -0.004131073    0.001719195
     10        6           0.001922652   -0.002524941    0.002720724
     11        1          -0.003387072   -0.002357951    0.002904556
     12        1          -0.004977713   -0.002058660    0.001157696
 -------------------------------------------------------------------
 Cartesian Forces:  Max     0.010621861 RMS     0.003384590

 GradGradGradGradGradGradGradGradGradGradGradGradGradGradGradGradGradGrad
 Berny optimization.
 Using GEDIIS/GDIIS optimizer.
 FormGI is forming the generalized inverse of G from B-inverse, IUseBI=4.
 Internal  Forces:  Max     0.007846200 RMS     0.002631460
 Search for a local minimum.
 Step number   3 out of a maximum of   56
 All quantities printed in internal units (Hartrees-Bohrs-Radians)
 Mixed Optimization -- RFO/linear search
 Update second derivatives using D2CorX and points    1    2    3
 DE= -6.00D-03 DEPred=-2.47D-03 R= 2.43D+00
 TightC=F SS=  1.41D+00  RLast= 3.83D-01 DXNew= 8.4853D-01 1.1479D+00
 Trust test= 2.43D+00 RLast= 3.83D-01 DXMaxT set to 8.49D-01
 ITU=  1  1  0
 Use linear search instead of GDIIS.
     Eigenvalues ---    0.00230   0.02899   0.05308   0.05330   0.05336
     Eigenvalues ---    0.05412   0.05462   0.05551   0.08337   0.08505
     Eigenvalues ---    0.09717   0.12038   0.12221   0.12371   0.12418
     Eigenvalues ---    0.12611   0.13052   0.14525   0.16018   0.16832
     Eigenvalues ---    0.22167   0.23027   0.24628   0.24967   0.24976
     Eigenvalues ---    0.75598   0.90348   1.53909   1.56629   1.66817
 RFO step:  Lambda=-2.81890537D-03 EMin= 2.30003637D-03
 Quartic linear search produced a step of  0.24328.
 Iteration  1 RMS(Cart)=  0.05147936 RMS(Int)=  0.00496423
 Iteration  2 RMS(Cart)=  0.00340064 RMS(Int)=  0.00382183
 Iteration  3 RMS(Cart)=  0.00004689 RMS(Int)=  0.00382172
 Iteration  4 RMS(Cart)=  0.00000118 RMS(Int)=  0.00382172
 Iteration  5 RMS(Cart)=  0.00000003 RMS(Int)=  0.00382172
 Variable       Old X    -DE/DX   Delta X   Delta X   Delta X     New X
                                 (Linear)    (Quad)   (Total)
    R1        4.58701   0.00001   0.00522   0.00250   0.00772   4.59473
    R2        4.58215   0.00010   0.00641   0.00367   0.01008   4.59223
    R3        4.13280  -0.00116   0.00851  -0.00484   0.00367   4.13647
    R4        3.59376  -0.00045   0.00262  -0.00011   0.00251   3.59627
    R5        3.66693  -0.00299   0.00421  -0.01207  -0.00786   3.65907
    R6        3.66971  -0.00319   0.00128  -0.01431  -0.01302   3.65668
    R7        2.18288  -0.00331   0.00413  -0.00005   0.00408   2.18695
    R8        2.18789  -0.00516   0.00423  -0.00129   0.00294   2.19083
    R9        2.18689  -0.00422   0.00583   0.00038   0.00621   2.19311
   R10        1.85844  -0.00024   0.01243   0.00929   0.02172   1.88016
   R11        1.85259   0.00229   0.01590   0.01620   0.03210   1.88470
    A1        1.57615   0.00106  -0.00143   0.01311   0.01126   1.58741
    A2        1.43377  -0.00010  -0.01593   0.00303  -0.01288   1.42088
    A3        1.56569   0.00304   0.00228   0.01846   0.02068   1.58638
    A4        1.51083   0.00025  -0.00394   0.00105  -0.00281   1.50802
    A5        1.43203  -0.00031  -0.01453  -0.00112  -0.01561   1.41642
    A6        1.57544   0.00182   0.00055   0.00977   0.01025   1.58569
    A7        1.51627  -0.00004  -0.00471  -0.00250  -0.00714   1.50913
    A8        1.61850   0.00133   0.00398   0.00357   0.00740   1.62590
    A9        1.61725   0.00142   0.00384   0.00697   0.01067   1.62792
   A10        1.65925  -0.00406   0.00865  -0.02321  -0.01465   1.64461
   A11        1.65129  -0.00258   0.00907  -0.01246  -0.00352   1.64777
   A12        1.67243  -0.00108   0.00871  -0.01076  -0.00228   1.67015
   A13        1.83276  -0.00785  -0.03342  -0.08055  -0.11793   1.71483
   A14        1.83393  -0.00765  -0.02879  -0.07770  -0.11030   1.72363
   A15        1.83533   0.00287  -0.01015  -0.01510  -0.04611   1.78922
   A16        3.09243   0.00102  -0.00615   0.01061   0.00412   3.09654
   A17        3.08699   0.00131  -0.00537   0.01416   0.00844   3.09543
   A18        2.99946   0.00294  -0.01365   0.02148   0.00780   3.00726
   A19        3.17979   0.00038   0.00733   0.00630   0.01363   3.19342
   A20        3.14041   0.00148   0.00578   0.02853   0.03431   3.17471
   A21        3.13894   0.00135   0.00496   0.02561   0.03057   3.16951
   A22        3.22485  -0.00111   0.01091  -0.00521   0.00561   3.23046
   A23        3.05602   0.00094  -0.00960   0.00381  -0.00574   3.05028
   A24        3.27781  -0.00136   0.01420  -0.00691   0.00733   3.28514
   A25        3.14769   0.00402  -0.00657   0.07631   0.06974   3.21744
   A26        3.12243   0.00258  -0.00450   0.05001   0.04550   3.16793
   A27        3.15665  -0.00247   0.00472  -0.04625  -0.04153   3.11512
    D1        1.75047  -0.00089  -0.02006  -0.02723  -0.04181   1.70866
    D2       -0.18064   0.00195   0.02585   0.05094   0.07214  -0.10850
    D3        0.15495  -0.00203  -0.02194  -0.04032  -0.05761   0.09734
    D4       -1.77616   0.00081   0.02397   0.03785   0.05634  -1.71982
    D5       -1.35405  -0.00178  -0.01609  -0.03723  -0.04829  -1.40234
    D6        2.99802   0.00106   0.02981   0.04095   0.06565   3.06368
    D7       -3.02894  -0.00085  -0.02515  -0.02699  -0.04704  -3.07598
    D8        1.32313   0.00200   0.02076   0.05118   0.06691   1.39004
         Item               Value     Threshold  Converged?
 Maximum Force            0.007846     0.000450     NO 
 RMS     Force            0.002631     0.000300     NO 
 Maximum Displacement     0.138394     0.001800     NO 
 RMS     Displacement     0.052463     0.001200     NO 
 Predicted change in Energy=-1.553058D-03
 GradGradGradGradGradGradGradGradGradGradGradGradGradGradGradGradGradGrad

                          Input orientation:                          
 ---------------------------------------------------------------------
 Center     Atomic      Atomic             Coordinates (Angstroms)
 Number     Number       Type             X           Y           Z
 ---------------------------------------------------------------------
      1         44           0        0.028882    8.006077    7.197995
      2         17           0       -1.859934    8.112468    5.670615
      3         17           0       -0.735004   10.006904    8.346289
      4          8           0       -1.635766    6.296512    9.110588
      5          8           0        2.532404    8.182595    9.009272
      6          8           0        1.033847    5.661614    5.444889
      7          8           0        0.812690    9.508998    5.812978
      8          6           0       -0.962183    6.906756    8.394209
      9          6           0        1.589305    8.090591    8.341316
     10          6           0        0.658755    6.525752    6.122702
     11          1           0        0.579342   10.321793    6.337206
     12          1           0        0.087762    9.477640    5.128740
 ---------------------------------------------------------------------
                    Distance matrix (angstroms):
                    1          2          3          4          5
     1  Ru   0.000000
     2  Cl   2.431427   0.000000
     3  Cl   2.430105   3.466062   0.000000
     4  O    3.058052   3.896327   3.893910   0.000000
     5  O    3.095078   5.517625   3.800474   4.576158   0.000000
     6  O    3.095132   3.798896   5.516203   4.579004   4.615825
     7  O    2.188927   3.018854   3.010139   5.214330   3.864331
     8  C    1.903062   3.110894   3.108831   1.157286   3.770704
     9  C    1.936296   4.362381   3.012423   3.769825   1.159339
    10  C    1.935034   3.010954   4.359510   3.774234   3.819421
    11  H    2.531107   3.357905   2.421379   5.366679   3.940883
    12  H    2.539839   2.439435   3.362988   5.380078   4.765705
                    6          7          8          9         10
     6  O    0.000000
     7  O    3.871274   0.000000
     8  C    3.772665   4.072419   0.000000
     9  C    3.820700   3.001250   2.813246   0.000000
    10  C    1.160542   3.003229   2.816442   2.869999   0.000000
    11  H    4.766557   0.994938   4.274347   3.164608   3.802926
    12  H    3.944246   0.997339   4.286621   3.807779   3.166644
                   11         12
    11  H    0.000000
    12  H    1.553909   0.000000
 Stoichiometry    C3H2Cl2O4Ru
 Framework group  C1[X(C3H2Cl2O4Ru)]
 Deg. of freedom    30
 Full point group                 C1      NOp   1
 Largest Abelian subgroup         C1      NOp   1
 Largest concise Abelian subgroup C1      NOp   1
                         Standard orientation:                         
 ---------------------------------------------------------------------
 Center     Atomic      Atomic             Coordinates (Angstroms)
 Number     Number       Type             X           Y           Z
 ---------------------------------------------------------------------
      1         44           0        0.000068    0.120908   -0.058526
      2         17           0        1.737456   -1.579886   -0.033683
      3         17           0       -1.728599   -1.586875   -0.034037
      4          8           0       -0.002070    0.139240    2.999470
      5          8           0       -2.311246    2.150704   -0.400963
      6          8           0        2.304573    2.158341   -0.401987
      7          8           0       -0.005352   -0.383098   -2.188631
      8          6           0       -0.001190    0.189789    1.843288
      9          6           0       -1.437741    1.403771   -0.248821
     10          6           0        1.432252    1.407514   -0.253074
     11          1           0       -0.777285   -1.010797   -2.184901
     12          1           0        0.776525   -1.002147   -2.200171
 ---------------------------------------------------------------------
 Rotational constants (GHZ):           0.7704965           0.7128793           0.6245791
 Basis read from rwf:  (5D, 7F)
 Pseudo-potential data read from rwf file.
 There are   177 symmetry adapted cartesian basis functions of A   symmetry.
 There are   166 symmetry adapted basis functions of A   symmetry.
   166 basis functions,   363 primitive gaussians,   177 cartesian basis functions
    51 alpha electrons       51 beta electrons
       nuclear repulsion energy       816.9690293243 Hartrees.
 NAtoms=   12 NActive=   12 NUniq=   12 SFac= 1.00D+00 NAtFMM=   60 NAOKFM=F Big=F
 Integral buffers will be    131072 words long.
 Raffenetti 2 integral format.
 Two-electron integral symmetry is turned on.
 Nuclear repulsion after empirical dispersion term =      816.9568368568 Hartrees.
 One-electron integrals computed using PRISM.
   1 Symmetry operations used in ECPInt.
 ECPInt:  NShTT=    1378 NPrTT=    9802 LenC2=    1313 LenP2D=    6269.
 LDataN:  DoStor=T MaxTD1= 5 Len=  102
 NBasis=   166 RedAO= T EigKep=  4.57D-03  NBF=   166
 NBsUse=   166 1.00D-06 EigRej= -1.00D+00 NBFU=   166
 Defaulting to unpruned grid for atomic number  44.
 Initial guess from the checkpoint file:  "/scratch/gameelka/Gau-57601.chk"
 B after Tr=     0.000000   -0.000000   -0.000000
         Rot=    0.999990    0.004046   -0.001621    0.000758 Ang=   0.51 deg.
 ExpMin= 2.50D-02 ExpMax= 2.52D+04 ExpMxC= 3.78D+03 IAcc=3 IRadAn=         5 AccDes= 0.00D+00
 Harris functional with IExCor= 1009 and IRadAn=       5 diagonalized for initial guess.
 HarFok:  IExCor= 1009 AccDes= 0.00D+00 IRadAn=         5 IDoV= 1 UseB2=F ITyADJ=14
 ICtDFT=  3500011 ScaDFX=  1.000000  1.000000  1.000000  1.000000
 Defaulting to unpruned grid for atomic number  44.
 FoFCou: FMM=F IPFlag=           0 FMFlag=      100000 FMFlg1=           0
         NFxFlg=           0 DoJE=T BraDBF=F KetDBF=T FulRan=T
         wScrn=  0.000000 ICntrl=       500 IOpCl=  0 I1Cent=   200000004 NGrid=           0
         NMat0=    1 NMatS0=      1 NMatT0=    0 NMatD0=    1 NMtDS0=    0 NMtDT0=    0
 Petite list used in FoFCou.
 Keep J ints in memory in canonical form, NReq=100096595.
 Requested convergence on RMS density matrix=1.00D-08 within 128 cycles.
 Requested convergence on MAX density matrix=1.00D-06.
 Requested convergence on             energy=1.00D-06.
 No special actions if energy rises.
 Defaulting to unpruned grid for atomic number  44.
 Defaulting to unpruned grid for atomic number  44.
 Defaulting to unpruned grid for atomic number  44.
 Defaulting to unpruned grid for atomic number  44.
 EnCoef did     3 forward-backward iterations
 SCF Done:  E(RTPSS-TPSS) =  -1430.91227848     A.U. after   12 cycles
            NFock= 12  Conv=0.96D-08     -V/T= 2.0488
   1 Symmetry operations used in ECPInt.
 ECPInt:  NShTT=    1378 NPrTT=    9802 LenC2=    1313 LenP2D=    6269.
 LDataN:  DoStor=T MaxTD1= 6 Len=  172
 Calling FoFJK, ICntrl=      2527 FMM=F ISym2X=0 I1Cent= 0 IOpClX= 0 NMat=1 NMatS=1 NMatT=0.
 Defaulting to unpruned grid for atomic number  44.
 Defaulting to unpruned grid for atomic number  44.
 Defaulting to unpruned grid for atomic number  44.
 Defaulting to unpruned grid for atomic number  44.
 ***** Axes restored to original set *****
 -------------------------------------------------------------------
 Center     Atomic                   Forces (Hartrees/Bohr)
 Number     Number              X              Y              Z
 -------------------------------------------------------------------
      1       44           0.000109206   -0.001976678    0.001649800
      2       17           0.000871427    0.000587670    0.000154998
      3       17           0.000175294    0.000019915   -0.000628328
      4        8           0.005677360    0.003649013   -0.004912115
      5        8          -0.007836352   -0.001520181   -0.004718929
      6        8          -0.003875043    0.008079885    0.007303530
      7        8          -0.005273365    0.006803473   -0.005106800
      8        6          -0.005768087   -0.003913364    0.004832682
      9        6           0.006640404    0.002030326    0.003318897
     10        6           0.003323162   -0.006764756   -0.006750565
     11        1           0.001366299   -0.004898391   -0.000474990
     12        1           0.004589696   -0.002096914    0.005331820
 -------------------------------------------------------------------
 Cartesian Forces:  Max     0.008079885 RMS     0.004444729

 GradGradGradGradGradGradGradGradGradGradGradGradGradGradGradGradGradGrad
 Berny optimization.
 Using GEDIIS/GDIIS optimizer.
 FormGI is forming the generalized inverse of G from B-inverse, IUseBI=4.
 Internal  Forces:  Max     0.011540424 RMS     0.002982469
 Search for a local minimum.
 Step number   4 out of a maximum of   56
 All quantities printed in internal units (Hartrees-Bohrs-Radians)
 Mixed Optimization -- RFO/linear search
 Update second derivatives using D2CorX and points    3    4
 DE= -1.69D-03 DEPred=-1.55D-03 R= 1.09D+00
 TightC=F SS=  1.41D+00  RLast= 2.64D-01 DXNew= 1.4270D+00 7.9207D-01
 Trust test= 1.09D+00 RLast= 2.64D-01 DXMaxT set to 8.49D-01
 ITU=  1  1  1  0
 Use linear search instead of GDIIS.
     Eigenvalues ---    0.00230   0.02964   0.05327   0.05330   0.05363
     Eigenvalues ---    0.05439   0.05477   0.06647   0.08145   0.08308
     Eigenvalues ---    0.08681   0.12037   0.12210   0.12242   0.12449
     Eigenvalues ---    0.12509   0.13089   0.14297   0.16007   0.16812
     Eigenvalues ---    0.22007   0.22764   0.24570   0.24942   0.24986
     Eigenvalues ---    0.75959   0.92374   1.53868   1.56257   1.67409
 RFO step:  Lambda=-7.13798805D-04 EMin= 2.30077285D-03
 Quartic linear search produced a step of  0.00123.
 Iteration  1 RMS(Cart)=  0.02405577 RMS(Int)=  0.00061933
 Iteration  2 RMS(Cart)=  0.00051175 RMS(Int)=  0.00030577
 Iteration  3 RMS(Cart)=  0.00000027 RMS(Int)=  0.00030577
 Variable       Old X    -DE/DX   Delta X   Delta X   Delta X     New X
                                 (Linear)    (Quad)   (Total)
    R1        4.59473  -0.00075   0.00001  -0.00413  -0.00412   4.59061
    R2        4.59223  -0.00034   0.00001  -0.00010  -0.00009   4.59214
    R3        4.13647   0.00027   0.00000   0.00423   0.00424   4.14071
    R4        3.59627   0.00016   0.00000   0.00151   0.00151   3.59778
    R5        3.65907  -0.00177  -0.00001  -0.00832  -0.00833   3.65074
    R6        3.65668  -0.00150  -0.00002  -0.00861  -0.00863   3.64806
    R7        2.18695  -0.00827   0.00000  -0.00404  -0.00403   2.18292
    R8        2.19083  -0.00921   0.00000  -0.00484  -0.00484   2.18600
    R9        2.19311  -0.01154   0.00001  -0.00513  -0.00512   2.18798
   R10        1.88016  -0.00457   0.00003  -0.00019  -0.00017   1.87999
   R11        1.88470  -0.00693   0.00004   0.00077   0.00081   1.88551
    A1        1.58741  -0.00044   0.00001  -0.00178  -0.00179   1.58562
    A2        1.42088  -0.00120  -0.00002  -0.01091  -0.01092   1.40996
    A3        1.58638   0.00121   0.00003   0.01019   0.01022   1.59660
    A4        1.50802   0.00013  -0.00000  -0.00064  -0.00064   1.50738
    A5        1.41642  -0.00074  -0.00002  -0.00747  -0.00748   1.40894
    A6        1.58569   0.00121   0.00001   0.00817   0.00818   1.59388
    A7        1.50913   0.00012  -0.00001  -0.00137  -0.00138   1.50775
    A8        1.62590   0.00027   0.00001   0.00107   0.00107   1.62697
    A9        1.62792   0.00027   0.00001   0.00159   0.00160   1.62952
   A10        1.64461  -0.00028  -0.00002  -0.00056  -0.00057   1.64403
   A11        1.64777  -0.00076  -0.00000  -0.00246  -0.00246   1.64531
   A12        1.67015   0.00006  -0.00000   0.00240   0.00238   1.67253
   A13        1.71483  -0.00334  -0.00014  -0.04357  -0.04394   1.67089
   A14        1.72363  -0.00374  -0.00014  -0.04416  -0.04451   1.67912
   A15        1.78922   0.00161  -0.00006   0.00479   0.00305   1.79227
   A16        3.09654  -0.00031   0.00001  -0.00315  -0.00318   3.09337
   A17        3.09543  -0.00031   0.00001  -0.00241  -0.00243   3.09300
   A18        3.00726   0.00001   0.00001  -0.00072  -0.00070   3.00656
   A19        3.19342  -0.00148   0.00002  -0.02448  -0.02447   3.16895
   A20        3.17471  -0.00219   0.00004  -0.03458  -0.03454   3.14017
   A21        3.16951  -0.00156   0.00004  -0.02273  -0.02270   3.14682
   A22        3.23046   0.00087   0.00001   0.00923   0.00923   3.23969
   A23        3.05028  -0.00039  -0.00001  -0.00521  -0.00521   3.04507
   A24        3.28514  -0.00049   0.00001  -0.00058  -0.00057   3.28457
   A25        3.21744  -0.00158   0.00009  -0.01945  -0.01937   3.19807
   A26        3.16793  -0.00051   0.00006  -0.00297  -0.00292   3.16502
   A27        3.11512   0.00049  -0.00005   0.00310   0.00305   3.11817
    D1        1.70866   0.00010  -0.00005  -0.00039   0.00000   1.70867
    D2       -0.10850  -0.00020   0.00009   0.01151   0.01121  -0.09729
    D3        0.09734   0.00024  -0.00007  -0.00151  -0.00120   0.09615
    D4       -1.71982  -0.00007   0.00007   0.01039   0.01001  -1.70981
    D5       -1.40234   0.00020  -0.00006   0.00054   0.00089  -1.40146
    D6        3.06368  -0.00010   0.00008   0.01244   0.01210   3.07577
    D7       -3.07598   0.00011  -0.00006  -0.00203  -0.00166  -3.07764
    D8        1.39004  -0.00020   0.00008   0.00987   0.00955   1.39959
         Item               Value     Threshold  Converged?
 Maximum Force            0.011540     0.000450     NO 
 RMS     Force            0.002982     0.000300     NO 
 Maximum Displacement     0.055038     0.001800     NO 
 RMS     Displacement     0.024093     0.001200     NO 
 Predicted change in Energy=-3.609770D-04
 GradGradGradGradGradGradGradGradGradGradGradGradGradGradGradGradGradGrad

                          Input orientation:                          
 ---------------------------------------------------------------------
 Center     Atomic      Atomic             Coordinates (Angstroms)
 Number     Number       Type             X           Y           Z
 ---------------------------------------------------------------------
      1         44           0        0.033588    8.013035    7.192135
      2         17           0       -1.842949    8.133671    5.654182
      3         17           0       -0.720523   10.025149    8.326990
      4          8           0       -1.606642    6.277971    9.102762
      5          8           0        2.513699    8.169638    9.026138
      6          8           0        1.017864    5.651826    5.462215
      7          8           0        0.814943    9.516158    5.802413
      8          6           0       -0.955760    6.913231    8.390600
      9          6           0        1.590390    8.100204    8.332727
     10          6           0        0.657838    6.533181    6.121129
     11          1           0        0.564619   10.303544    6.356570
     12          1           0        0.063031    9.460091    5.148942
 ---------------------------------------------------------------------
                    Distance matrix (angstroms):
                    1          2          3          4          5
     1  Ru   0.000000
     2  Cl   2.429247   0.000000
     3  Cl   2.430058   3.461420   0.000000
     4  O    3.057989   3.923285   3.927897   0.000000
     5  O    3.088535   5.509243   3.793669   4.534477   0.000000
     6  O    3.088160   3.792183   5.509526   4.531409   4.612856
     7  O    2.191169   2.999605   2.998369   5.219409   3.884751
     8  C    1.903864   3.124830   3.121445   1.155152   3.744277
     9  C    1.931886   4.354714   3.007618   3.759588   1.156780
    10  C    1.930469   3.005585   4.354256   3.752750   3.815925
    11  H    2.495314   3.316335   2.368892   5.334902   3.934344
    12  H    2.503892   2.376429   3.321632   5.342882   4.764839
                    6          7          8          9         10
     6  O    0.000000
     7  O    3.884582   0.000000
     8  C    3.749903   4.075454   0.000000
     9  C    3.816042   3.001455   2.809828   0.000000
    10  C    1.157831   3.004066   2.810451   2.866422   0.000000
    11  H    4.758548   0.994850   4.235924   3.132429   3.778856
    12  H    3.938620   0.997767   4.246502   3.783993   3.140978
                   11         12
    11  H    0.000000
    12  H    1.556075   0.000000
 Stoichiometry    C3H2Cl2O4Ru
 Framework group  C1[X(C3H2Cl2O4Ru)]
 Deg. of freedom    30
 Full point group                 C1      NOp   1
 Largest Abelian subgroup         C1      NOp   1
 Largest concise Abelian subgroup C1      NOp   1
                         Standard orientation:                         
 ---------------------------------------------------------------------
 Center     Atomic      Atomic             Coordinates (Angstroms)
 Number     Number       Type             X           Y           Z
[...]
   A12        1.66989  -0.00002  -0.00012  -0.00003  -0.00015   1.66974
   A13        1.67288  -0.00001   0.00026  -0.00002   0.00025   1.67313
   A14        1.67225   0.00004   0.00028   0.00022   0.00050   1.67274
   A15        1.80231   0.00000   0.00015  -0.00006   0.00009   1.80240
   A16        3.09324   0.00002   0.00013   0.00002   0.00016   3.09340
   A17        3.09340   0.00001   0.00013  -0.00006   0.00007   3.09347
   A18        3.01140   0.00002   0.00008   0.00006   0.00015   3.01154
   A19        3.17249   0.00004   0.00024   0.00006   0.00030   3.17279
   A20        3.15094  -0.00009  -0.00098   0.00000  -0.00097   3.14996
   A21        3.14993   0.00000  -0.00019   0.00024   0.00005   3.14998
   A22        3.23492   0.00002   0.00009  -0.00006   0.00003   3.23496
   A23        3.04826   0.00001   0.00010   0.00002   0.00011   3.04837
   A24        3.27558  -0.00004  -0.00011  -0.00013  -0.00024   3.27534
   A25        3.18528   0.00001  -0.00017   0.00043   0.00027   3.18555
   A26        3.15896   0.00004   0.00018   0.00036   0.00054   3.15950
   A27        3.12436  -0.00004  -0.00016  -0.00043  -0.00059   3.12377
    D1        1.71255   0.00001   0.00034   0.00011   0.00044   1.71300
    D2       -0.10295  -0.00000   0.00011   0.00014   0.00025  -0.10269
    D3        0.10286   0.00001   0.00023   0.00024   0.00047   0.10333
    D4       -1.71263   0.00000   0.00001   0.00027   0.00028  -1.71236
    D5       -1.39669  -0.00001   0.00020   0.00012   0.00032  -1.39638
    D6        3.07099  -0.00002  -0.00002   0.00015   0.00012   3.07112
    D7       -3.07091   0.00001   0.00033   0.00016   0.00049  -3.07042
    D8        1.39677   0.00001   0.00011   0.00019   0.00030   1.39708
         Item               Value     Threshold  Converged?
 Maximum Force            0.000112     0.000450     YES
 RMS     Force            0.000039     0.000300     YES
 Maximum Displacement     0.001127     0.001800     YES
 RMS     Displacement     0.000400     0.001200     YES
 Predicted change in Energy=-1.541744D-07
 Optimization completed.
    -- Stationary point found.
                           ----------------------------
                           !   Optimized Parameters   !
                           ! (Angstroms and Degrees)  !
 --------------------------                            --------------------------
 ! Name  Definition              Value          Derivative Info.                !
 --------------------------------------------------------------------------------
 ! R1    R(1,2)                  2.4293         -DE/DX =    0.0                 !
 ! R2    R(1,3)                  2.4293         -DE/DX =    0.0                 !
 ! R3    R(1,7)                  2.2022         -DE/DX =    0.0                 !
 ! R4    R(1,8)                  1.9031         -DE/DX =    0.0                 !
 ! R5    R(1,9)                  1.9321         -DE/DX =   -0.0001              !
 ! R6    R(1,10)                 1.9321         -DE/DX =   -0.0001              !
 ! R7    R(4,8)                  1.1535         -DE/DX =    0.0001              !
 ! R8    R(5,9)                  1.155          -DE/DX =    0.0                 !
 ! R9    R(6,10)                 1.155          -DE/DX =    0.0001              !
 ! R10   R(7,11)                 0.9901         -DE/DX =    0.0001              !
 ! R11   R(7,12)                 0.9902         -DE/DX =    0.0                 !
 ! A1    A(2,1,3)               90.669          -DE/DX =    0.0                 !
 ! A2    A(2,1,7)               80.6869         -DE/DX =    0.0                 !
 ! A3    A(2,1,8)               91.8535         -DE/DX =    0.0                 !
 ! A4    A(2,1,10)              86.57           -DE/DX =    0.0                 !
 ! A5    A(3,1,7)               80.6867         -DE/DX =    0.0                 !
 ! A6    A(3,1,8)               91.851          -DE/DX =    0.0                 !
 ! A7    A(3,1,9)               86.5608         -DE/DX =    0.0                 !
 ! A8    A(7,1,9)               93.5825         -DE/DX =    0.0                 !
 ! A9    A(7,1,10)              93.5839         -DE/DX =    0.0                 !
 ! A10   A(8,1,9)               93.5744         -DE/DX =    0.0                 !
 ! A11   A(8,1,10)              93.5771         -DE/DX =    0.0                 !
 ! A12   A(9,1,10)              95.6775         -DE/DX =    0.0                 !
 ! A13   A(1,7,11)              95.849          -DE/DX =    0.0                 !
 ! A14   A(1,7,12)              95.8128         -DE/DX =    0.0                 !
 ! A15   A(11,7,12)            103.2645         -DE/DX =    0.0                 !
 ! A16   L(2,1,9,3,-1)         177.2297         -DE/DX =    0.0                 !
 ! A17   L(3,1,10,2,-1)        177.239          -DE/DX =    0.0                 !
 ! A18   L(7,1,8,2,-1)         172.5404         -DE/DX =    0.0                 !
 ! A19   L(1,8,4,6,-1)         181.7701         -DE/DX =    0.0                 !
 ! A20   L(1,9,5,4,-1)         180.5353         -DE/DX =   -0.0001              !
 ! A21   L(1,10,6,4,-1)        180.4775         -DE/DX =    0.0                 !
 ! A22   L(2,1,9,3,-2)         185.3475         -DE/DX =    0.0                 !
 ! A23   L(3,1,10,2,-2)        174.6522         -DE/DX =    0.0                 !
 ! A24   L(7,1,8,2,-2)         187.6769         -DE/DX =    0.0                 !
 ! A25   L(1,8,4,6,-2)         182.5032         -DE/DX =    0.0                 !
 ! A26   L(1,9,5,4,-2)         180.9948         -DE/DX =    0.0                 !
 ! A27   L(1,10,6,4,-2)        179.0125         -DE/DX =    0.0                 !
 ! D1    D(2,1,7,11)            98.1221         -DE/DX =    0.0                 !
 ! D2    D(2,1,7,12)            -5.8983         -DE/DX =    0.0                 !
 ! D3    D(3,1,7,11)             5.8937         -DE/DX =    0.0                 !
 ! D4    D(3,1,7,12)           -98.1267         -DE/DX =    0.0                 !
 ! D5    D(9,1,7,11)           -80.0246         -DE/DX =    0.0                 !
 ! D6    D(9,1,7,12)           175.9549         -DE/DX =    0.0                 !
 ! D7    D(10,1,7,11)         -175.9503         -DE/DX =    0.0                 !
 ! D8    D(10,1,7,12)           80.0292         -DE/DX =    0.0                 !
 --------------------------------------------------------------------------------
 GradGradGradGradGradGradGradGradGradGradGradGradGradGradGradGradGradGrad

                          Input orientation:                          
 ---------------------------------------------------------------------
 Center     Atomic      Atomic             Coordinates (Angstroms)
 Number     Number       Type             X           Y           Z
 ---------------------------------------------------------------------
      1         44           0        0.027945    8.017230    7.191618
      2         17           0       -1.847235    8.144306    5.652464
      3         17           0       -0.726620   10.030772    8.321925
      4          8           0       -1.584346    6.264899    9.106735
      5          8           0        2.506832    8.159738    9.025816
      6          8           0        1.015864    5.649122    5.475334
      7          8           0        0.815283    9.526527    5.794508
      8          6           0       -0.949377    6.905413    8.387668
      9          6           0        1.579997    8.094198    8.339721
     10          6           0        0.651313    6.530273    6.126939
     11          1           0        0.572103   10.311626    6.346564
     12          1           0        0.068342    9.463596    5.147508
 ---------------------------------------------------------------------
                    Distance matrix (angstroms):
                    1          2          3          4          5
     1  Ru   0.000000
     2  Cl   2.429288   0.000000
     3  Cl   2.429262   3.455511   0.000000
     4  O    3.055784   3.941227   3.941246   0.000000
     5  O    3.086985   5.507962   3.801504   4.509401   0.000000
     6  O    3.086996   3.801928   5.508011   4.508585   4.596967
     7  O    2.202225   3.003283   3.003259   5.231375   3.894972
     8  C    1.903111   3.134062   3.133977   1.153473   3.731749
     9  C    1.932080   4.355431   3.011830   3.734664   1.155009
    10  C    1.932141   3.012137   4.355474   3.734672   3.808096
    11  H    2.504891   3.321482   2.380674   5.352084   3.943626
    12  H    2.504394   2.380113   3.321231   5.351496   4.763145
                    6          7          8          9         10
     6  O    0.000000
     7  O    3.895686   0.000000
     8  C    3.731236   4.087633   0.000000
     9  C    3.808064   3.019017   2.795218   0.000000
    10  C    1.154952   3.019095   2.795323   2.864388   0.000000
    11  H    4.763917   0.990093   4.252445   3.147302   3.788553
    12  H    3.944043   0.990196   4.251904   3.788215   3.146986
                   11         12
    11  H    0.000000
    12  H    1.552631   0.000000
 Stoichiometry    C3H2Cl2O4Ru
 Framework group  C1[X(C3H2Cl2O4Ru)]
 Deg. of freedom    30
 Full point group                 C1      NOp   1
 Largest Abelian subgroup         C1      NOp   1
 Largest concise Abelian subgroup C1      NOp   1
                         Standard orientation:                         
 ---------------------------------------------------------------------
 Center     Atomic      Atomic             Coordinates (Angstroms)
 Number     Number       Type             X           Y           Z
 ---------------------------------------------------------------------
      1         44           0        0.000035    0.109272   -0.070462
      2         17           0        1.727358   -1.589117    0.111942
      3         17           0       -1.728153   -1.588083    0.113034
      4          8           0        0.001154    0.522143    2.957302
      5          8           0       -2.298189    2.105221   -0.584107
      6          8           0        2.298778    2.104542   -0.584489
      7          8           0       -0.000844   -0.624381   -2.146888
      8          6           0        0.000657    0.399943    1.810320
      9          6           0       -1.431972    1.367263   -0.386294
     10          6           0        1.432416    1.366689   -0.387247
     11          1           0       -0.777214   -1.229414   -2.039797
     12          1           0        0.775418   -1.229706   -2.039702
 ---------------------------------------------------------------------
 Rotational constants (GHZ):           0.7691766           0.7167307           0.6251891

 **********************************************************************

            Population analysis using the SCF Density.

 **********************************************************************

 Orbital symmetries:
       Occupied  (A) (A) (A) (A) (A) (A) (A) (A) (A) (A) (A) (A)
                 (A) (A) (A) (A) (A) (A) (A) (A) (A) (A) (A) (A)
                 (A) (A) (A) (A) (A) (A) (A) (A) (A) (A) (A) (A)
                 (A) (A) (A) (A) (A) (A) (A) (A) (A) (A) (A) (A)
                 (A) (A) (A)
       Virtual   (A) (A) (A) (A) (A) (A) (A) (A) (A) (A) (A) (A)
                 (A) (A) (A) (A) (A) (A) (A) (A) (A) (A) (A) (A)
                 (A) (A) (A) (A) (A) (A) (A) (A) (A) (A) (A) (A)
                 (A) (A) (A) (A) (A) (A) (A) (A) (A) (A) (A) (A)
                 (A) (A) (A) (A) (A) (A) (A) (A) (A) (A) (A) (A)
                 (A) (A) (A) (A) (A) (A) (A) (A) (A) (A) (A) (A)
                 (A) (A) (A) (A) (A) (A) (A) (A) (A) (A) (A) (A)
                 (A) (A) (A) (A) (A) (A) (A) (A) (A) (A) (A) (A)
                 (A) (A) (A) (A) (A) (A) (A) (A) (A) (A) (A) (A)
                 (A) (A) (A) (A) (A) (A) (A)
 The electronic state is 1-A.
 Alpha  occ. eigenvalues -- -100.95649-100.95648 -19.03305 -19.03304 -19.03273
 Alpha  occ. eigenvalues --  -18.99628 -10.16759 -10.16426 -10.16423  -9.20686
 Alpha  occ. eigenvalues --   -9.20684  -6.98515  -6.98514  -6.97911  -6.97910
 Alpha  occ. eigenvalues --   -6.97775  -6.97773  -2.87854  -1.79127  -1.78689
 Alpha  occ. eigenvalues --   -1.78475  -1.10411  -1.10372  -1.10363  -1.01999
 Alpha  occ. eigenvalues --   -0.71894  -0.71304  -0.57333  -0.56107  -0.56092
 Alpha  occ. eigenvalues --   -0.54571  -0.47469  -0.46742  -0.46684  -0.46153
 Alpha  occ. eigenvalues --   -0.45824  -0.45821  -0.44577  -0.44513  -0.44289
 Alpha  occ. eigenvalues --   -0.42235  -0.37634  -0.32668  -0.31876  -0.31540
 Alpha  occ. eigenvalues --   -0.30836  -0.30155  -0.26172  -0.25193  -0.24590
 Alpha  occ. eigenvalues --   -0.24217
 Alpha virt. eigenvalues --   -0.12868  -0.11423  -0.09022  -0.08324  -0.08200
 Alpha virt. eigenvalues --   -0.08001  -0.07545  -0.07281  -0.00461   0.01819
 Alpha virt. eigenvalues --    0.02388   0.03533   0.11026   0.11781   0.18254
 Alpha virt. eigenvalues --    0.23314   0.23725   0.27795   0.28464   0.30128
 Alpha virt. eigenvalues --    0.40743   0.41274   0.41735   0.42659   0.43064
 Alpha virt. eigenvalues --    0.44576   0.46123   0.46325   0.50881   0.52559
 Alpha virt. eigenvalues --    0.52946   0.54946   0.56540   0.56929   0.61631
 Alpha virt. eigenvalues --    0.62579   0.63441   0.65001   0.68334   0.69155
 Alpha virt. eigenvalues --    0.70258   0.72245   0.76523   0.76740   0.80049
 Alpha virt. eigenvalues --    0.81822   0.82066   0.84076   0.85165   0.85921
 Alpha virt. eigenvalues --    0.85986   0.87569   0.88349   0.89792   0.91171
 Alpha virt. eigenvalues --    0.97413   0.97959   0.98302   1.00149   1.00943
 Alpha virt. eigenvalues --    1.01234   1.02961   1.04398   1.07350   1.09799
 Alpha virt. eigenvalues --    1.12920   1.20935   1.21628   1.25851   1.38294
 Alpha virt. eigenvalues --    1.40519   1.40550   1.40638   1.41402   1.41969
 Alpha virt. eigenvalues --    1.43132   1.44375   1.45584   1.45758   1.46708
 Alpha virt. eigenvalues --    1.55212   1.55877   1.66795   1.68242   1.68505
 Alpha virt. eigenvalues --    1.74557   1.74651   1.79020   1.86193   1.87575
 Alpha virt. eigenvalues --    1.87886   1.89099   1.92300   2.03804   2.13664
 Alpha virt. eigenvalues --    2.18523   2.30878   2.31066   2.32754   2.36180
 Alpha virt. eigenvalues --    2.49536   2.50288   2.50460   2.50857   2.51475
 Alpha virt. eigenvalues --    2.51545   2.55861   2.59155   2.89677   2.91513
 Alpha virt. eigenvalues --    2.94686   2.94777   3.31985   3.52903  11.05452
          Condensed to atoms (all electrons):
               1          2          3          4          5          6
     1  Ru  15.292036   0.202837   0.202841  -0.000403   0.000296   0.000294
     2  Cl   0.202837  17.036170  -0.019765   0.000035   0.000011   0.000396
     3  Cl   0.202841  -0.019765  17.036178   0.000035   0.000396   0.000011
     4  O   -0.000403   0.000035   0.000035   7.597832   0.000013   0.000013
     5  O    0.000296   0.000011   0.000396   0.000013   7.606399   0.000010
     6  O    0.000294   0.000396   0.000011   0.000013   0.000010   7.606302
     7  O    0.113840  -0.026942  -0.026925   0.000001   0.000034   0.000035
     8  C    0.136778   0.015062   0.015061   0.608537  -0.000537  -0.000539
     9  C    0.072271  -0.006976  -0.014024  -0.000737   0.602029  -0.000788
    10  C    0.072220  -0.014017  -0.006976  -0.000737  -0.000788   0.602098
    11  H   -0.026110  -0.001505   0.034097  -0.000001  -0.000023  -0.000011
    12  H   -0.026126   0.034144  -0.001508  -0.000001  -0.000011  -0.000023
               7          8          9         10         11         12
     1  Ru   0.113840   0.136778   0.072271   0.072220  -0.026110  -0.026126
     2  Cl  -0.026942   0.015062  -0.006976  -0.014017  -0.001505   0.034144
     3  Cl  -0.026925   0.015061  -0.014024  -0.006976   0.034097  -0.001508
     4  O    0.000001   0.608537  -0.000737  -0.000737  -0.000001  -0.000001
     5  O    0.000034  -0.000537   0.602029  -0.000788  -0.000023  -0.000011
     6  O    0.000035  -0.000539  -0.000788   0.602098  -0.000011  -0.000023
     7  O    7.904435  -0.002395   0.003664   0.003660   0.259355   0.259285
     8  C   -0.002395   4.997756  -0.044613  -0.044601   0.000317   0.000318
     9  C    0.003664  -0.044613   5.159844  -0.034142  -0.001380   0.000628
    10  C    0.003660  -0.044601  -0.034142   5.159827   0.000628  -0.001380
    11  H    0.259355   0.000317  -0.001380   0.000628   0.374442  -0.010114
    12  H    0.259285   0.000318   0.000628  -0.001380  -0.010114   0.374483
 Mulliken charges:
               1
     1  Ru  -0.040774
     2  Cl  -0.219450
     3  Cl  -0.219419
     4  O   -0.204586
     5  O   -0.207829
     6  O   -0.207799
     7  O   -0.488045
     8  C    0.318857
     9  C    0.264225
    10  C    0.264209
    11  H    0.370305
    12  H    0.370306
 Sum of Mulliken charges =  -0.00000
 Mulliken charges with hydrogens summed into heavy atoms:
               1
     1  Ru  -0.040774
     2  Cl  -0.219450
     3  Cl  -0.219419
     4  O   -0.204586
     5  O   -0.207829
     6  O   -0.207799
     7  O    0.252566
     8  C    0.318857
     9  C    0.264225
    10  C    0.264209
 Electronic spatial extent (au):  <R**2>=           2132.2814
 Charge=             -0.0000 electrons
 Dipole moment (field-independent basis, Debye):
    X=              0.0004    Y=              3.3547    Z=             -1.7410  Tot=              3.7795
 Quadrupole moment (field-independent basis, Debye-Ang):
   XX=            -91.4817   YY=            -87.7502   ZZ=            -80.5093
   XY=              0.0038   XZ=              0.0042   YZ=              5.9374
 Traceless Quadrupole moment (field-independent basis, Debye-Ang):
   XX=             -4.9013   YY=             -1.1699   ZZ=              6.0711
   XY=              0.0038   XZ=              0.0042   YZ=              5.9374
 Octapole moment (field-independent basis, Debye-Ang**2):
  XXX=              0.0063  YYY=             18.0497  ZZZ=            -13.2479  XYY=             -0.0056
  XXY=              9.7562  XXZ=             -5.0873  XZZ=             -0.0045  YZZ=             -5.8863
  YYZ=             -9.5544  XYZ=             -0.0127
 Hexadecapole moment (field-independent basis, Debye-Ang**3):
 XXXX=          -1043.6066 YYYY=           -918.1005 ZZZZ=           -680.0921 XXXY=              0.0120
 XXXZ=              0.0387 YYYX=              0.0246 YYYZ=             19.8789 ZZZX=              0.0139
 ZZZY=             19.5820 XXYY=           -342.8644 XXZZ=           -265.9287 YYZZ=           -241.7699
 XXYZ=             12.3550 YYXZ=              0.0140 ZZXY=              0.0120
 N-N= 8.178038733781D+02 E-N=-4.996450613848D+03  KE= 1.364400839670D+03
 Unable to Open any file for archive entry.
 1\1\GINC-CEDAR1\FOpt\RTPSSTPSS\Gen\C3H2Cl2O4Ru1\GAMEELKA\25-Mar-2024\0
 \\#n TPSSTPSS/Gen Pseudo=Read EmpiricalDispersion=GD3 opt\\Title\\0,1\
 Ru,0.027944552,8.0172296491,7.1916176327\Cl,-1.8472351537,8.144306325,
 5.6524637742\Cl,-0.7266196372,10.0307719277,8.3219254091\O,-1.58434552
 41,6.2648990725,9.106734798\O,2.506831719,8.1597384555,9.0258163746\O,
 1.0158638944,5.6491220141,5.4753343565\O,0.8152825296,9.5265268346,5.7
 945076442\C,-0.9493774246,6.9054129074,8.3876675242\C,1.5799974811,8.0
 941978911,8.3397205647\C,0.6513129255,6.5302732477,6.1269391654\H,0.57
 21027623,10.311625751,6.346564273\H,0.0683418756,9.4635959243,5.147508
 4834\\Version=ES64L-G16RevC.01\State=1-A\HF=-1430.9128087\RMSD=6.245e-
 09\RMSF=6.058e-05\Dipole=1.3634134,-0.5684051,-0.1706225\Quadrupole=-2
 .9565034,2.5004173,0.4560861,1.5327533,-1.3729881,-4.9855544\PG=C01 [X
 (C3H2Cl2O4Ru1)]\\@
 The archive entry for this job was punched.


 ON A CLEAR DISK YOU CAN SEEK FOREVER.
 Job cpu time:       0 days  0 hours 18 minutes 15.9 seconds.
 Elapsed time:       0 days  0 hours  4 minutes 57.6 seconds.
 File lengths (MBytes):  RWF=     19 Int=      0 D2E=      0 Chk=      3 Scr=      1
 Normal termination of Gaussian 16 at Mon Mar 25 08:25:38 2024.
