23
Properties=species:S:1:pos:R:3:forces:R:3 energy=-52275.382867511405 pbc="F F F"
Ir       2.60660000      -0.52760000      14.70000000       0.54517881      -0.14400549      -0.06174021
Cl       3.95160000       1.37570000      15.10950000      -0.04816823       0.14591500       0.03831916
Cl       4.55440000      -1.76160000      14.21980000       0.57563178      -0.40614321      -0.00985288
Cl       0.68080000       0.74140000      15.11200000      -0.82232756       0.44151583       0.34114078
N        2.72630000      -1.05060000      16.68280000       0.03953884       0.45275243      -0.20078317
N        1.48660000      -2.07200000      14.18630000       8.11992152       9.89226575      -8.12475273
N        2.28630000      -0.19110000      12.74220000     -16.80521736     -29.78731603      23.47371823
C        3.03750000      -2.30330000      17.05490000      -0.86191612       7.86334803       7.26792626
C        3.04280000      -2.66490000      18.39370000     -13.79907417      53.41352363      -8.21602649
C        2.74750000      -1.76040000      19.37280000      -0.23418370       3.49336903      -9.88890151
C        2.45440000      -0.47720000      18.97870000       6.39842364     -17.84253400     -14.58861527
C        2.45590000      -0.16560000      17.67900000       1.99917489      -8.40005208       0.13354141
C        1.04280000      -2.12800000      12.98700000      -0.64990006       0.87621397      -3.09350754
C        1.52820000      -1.05790000      12.13280000       7.69356862      -3.93702603      27.96915366
H        2.98380000      -2.98260000      16.46010000       0.30252918      -7.85189408      -7.96926284
H        3.21850000      -3.31130000      18.45980000      14.47933916     -54.66889929       7.06159290
H        2.83990000      -2.21570000      20.13640000       0.58338222      -4.43462544      11.65375026
H        2.24160000       0.05720000      19.52210000      -6.88365584      18.13843354      17.84969586
H        2.30980000       0.71460000      17.49540000      -1.80509767       9.91771073      -3.12390816
H        1.03750000      -2.56870000      14.66110000      -8.46253760     -10.46193556      10.89343797
H        0.24990000      -2.81580000      12.65650000       0.42880733       0.04466876       0.23312749
H        1.30260000      -0.97390000      11.39600000      -8.23912477       3.20668473     -28.23687263
H        2.58240000       0.30800000      12.33840000      17.44570703      30.04802972     -23.40118047
23
Properties=species:S:1:pos:R:3:forces:R:3 energy=-52285.93785257989 pbc="F F F"
Ir       2.60312000      -0.53049400      14.70057400       0.51618900      -0.16218397      -0.07902662
Cl       3.94617200       1.37468100      15.11001400      -0.04776915       0.14363957       0.02369822
Cl       4.55404100      -1.76590000      14.22294600       0.54583367      -0.37990752      -0.00994287
Cl       0.67322000       0.73892600      15.11443700      -0.77628259       0.41425617       0.31973835
N        2.72562900      -1.04987700      16.68403400       0.02772148       0.39878913      -0.14806156
N        1.48177100      -2.07584000      14.18640100       5.15744518       6.69515226      -5.42901190
N        2.28689000      -0.19303900      12.74155600      -9.60745522     -17.45098355      13.47992141
C        3.03945000      -2.30357400      17.05753200      -0.97417692       5.75860431       5.54123717
C        3.04916300      -2.66677500      18.39967600      -7.71469111      30.44905684      -5.71663398
C        2.75294200      -1.75748100      19.38294400       0.03758120       2.04482071      -7.39829411
C        2.45586900      -0.47104800      18.98586600       4.04932097     -11.79783288      -8.82070274
C        2.45513400      -0.16044300      17.67629000       1.58506110      -6.09104422       0.08815629
C        1.03957700      -2.12834500      12.97825700      -0.54626989       0.77934694      -2.52577547
C        1.52874300      -1.05903500      12.12717000       4.65923410      -2.72417502      17.91655236
H        2.98595100      -3.00401000      16.43891300       0.42990504      -5.74058180      -6.09921447
H        3.24810600      -3.39439900      18.47946700       8.31203529     -31.50963446       4.67495819
H        2.84787700      -2.21759800      20.18323900       0.29990615      -2.84145935       8.84855067
H        2.22745700       0.10532600      19.56749600      -4.46102697      12.00381524      11.60059527
H        2.30309000       0.74666700      17.47730000      -1.38920016       7.39143425      -2.56840154
H        1.01150500      -2.59624600      14.68801500      -5.58072592      -7.16087467       7.63636805
H        0.24827400      -2.81461600      12.64560300       0.39936815       0.02193161       0.21049587
H        1.28833700      -0.96623800      11.32946200      -5.12553799       2.07561117     -18.14842901
H        2.61538500       0.35805600      12.30010900      10.20353458      17.68221917     -13.39677763
23
Properties=species:S:1:pos:R:3:forces:R:3 energy=-52296.00584662936 pbc="F F F"
Ir       2.59587200      -0.53647500      14.70164000       0.45879473      -0.18907190      -0.14439903
Cl       3.93506100       1.37239400      15.11107400      -0.04928599       0.13533064      -0.00867999
Cl       4.55299600      -1.77461800      14.22886800       0.48503284      -0.32658278      -0.01015653
Cl       0.65780300       0.73371200      15.11956100      -0.68522990       0.35962516       0.27847677
N        2.72415400      -1.04885300      16.68631900       0.00680113       0.28148419      -0.02583717
N        1.47177100      -2.08365200      14.18642700       1.14213507       2.41247862      -1.92021080
N        2.28764300      -0.19684800      12.74028400      -2.00848855      -4.44188392       3.09252142
C        3.04325300      -2.30457000      17.06243500      -1.10374078       2.48473120       2.97278477
C        3.06196600      -2.67108700      18.41118900      -1.74052821       7.96140981      -2.79424731
C        2.76400300      -1.75228900      19.40290200       0.42741241       0.03743311      -3.67377502
C        2.45890500      -0.45938000      19.00004000       1.19833363      -4.32951601      -2.05085941
C        2.45351400      -0.15073600      17.67075700       0.92883731      -2.55836904       0.09524981
C        1.03287100      -2.12893000      12.96064000      -0.36522086       0.59873531      -1.48079525
C        1.52942600      -1.06112800      12.11587400       1.25947946      -1.07559795       5.91400165
H        2.99045000      -3.04660400      16.39549000       0.59707628      -2.51302763      -3.15930464
H        3.30807100      -3.56046400      18.52181600       2.13711098      -8.46286573       1.90197736
H        2.86370600      -2.21900500      20.27753300      -0.10316984      -0.61165037       4.48433577
H        2.19938300       0.20176700      19.65730700      -1.45294917       4.28496501       3.88189165
H        2.28932300       0.80948900      17.43940900      -0.72804993       3.46148488      -1.58754952
H        0.95969700      -2.65112400      14.74244700      -1.69049608      -2.65723958       3.06425543
H        0.24475900      -2.81212300      12.62371400       0.34201485      -0.02065825       0.16579354
H        1.26096300      -0.94977000      11.19606600      -1.50397061       0.64813098      -5.98701651
H        2.68211200       0.45899500      12.22550600       2.44810131       4.52065404      -3.00845688
23
Properties=species:S:1:pos:R:3:forces:R:3 energy=-52297.54461186887 pbc="F F F"
Ir       2.58286400      -0.54714700      14.70319500       0.37710923      -0.19505331      -0.32051025
Cl       3.91571100       1.36772100      15.11294700      -0.05922953       0.10873016      -0.07199814
Cl       4.55026600      -1.78975600      14.23775300       0.38059642      -0.23667402      -0.01012315
Cl       0.63119100       0.72417800      15.12889500      -0.53667412       0.26931716       0.21307037
N        2.72128200      -1.04840900      16.68963100      -0.02569340       0.07156563       0.21021896
N        1.45392500      -2.09719200      14.18596500      -2.12514712      -0.95124278       0.54032930
N        2.28770800      -0.20310400      12.73818600       1.81956938       2.21932993      -2.17796895
C        3.04931900      -2.30761100      17.06962800      -1.13267634      -1.00937188       0.44982086
C        3.08366400      -2.68003500      18.42926300       0.97438076      -2.33513243      -0.77567530
C        2.78308900      -1.74548300      19.43549500       0.75406605      -1.55695997      -0.01063347
C        2.46430900      -0.44164300      19.02341800      -0.67029755       0.80590360       1.90178566
C        2.45054700      -0.13621100      17.66111800       0.20233354       1.05809305       0.31473133
C        1.02080700      -2.12959200      12.93064800      -0.14010667       0.30159999       0.04268129
C        1.52941100      -1.06415400      12.09677400      -0.51220554       0.46969189      -1.91534895
H        2.99846000      -3.11747700      16.31932100       0.70798941       0.81056985       0.05895226
H        3.41115200      -3.83911700      18.60191100      -0.96465319       2.99495005       0.00822856
H        2.88983600      -2.21408900      20.43753200      -0.44968402       1.25348333      -0.19347229
H        2.15285300       0.36444900      19.80547700       0.69064860      -1.39051810      -1.56719090
H        2.26515700       0.91109400      17.37072100       0.01057063      -0.72054868      -0.28665123
H        0.87316600      -2.74279200      14.83577800       1.45750512       1.09574388      -0.99640282
H        0.23803100      -2.80753000      12.58664300       0.24488438      -0.09002775       0.09510007
H        1.21837900      -0.91857500      10.97087600       0.75148569      -0.42090242       2.26740637
H        2.79657400       0.63117600      12.10612500      -1.75477171      -2.55254734       2.22365051
23
Properties=species:S:1:pos:R:3:forces:R:3 energy=-52298.68842996317 pbc="F F F"
Ir       2.54246900      -0.56269200      14.71244400       0.19376910      -0.04698702      -0.21561036
Cl       3.86977600       1.35793900      15.12520700       0.00573222       0.02495328      -0.04385804
Cl       4.51452800      -1.84543600      14.28088200       0.16960371      -0.09739345      -0.04516776
Cl       0.57655600       0.72766000      15.15773800      -0.25354488       0.11131006       0.11172179
N        2.68207200      -1.07281900      16.70171000      -0.01488468      -0.00167410       0.06949939
N        1.36351100      -2.06718600      14.15640000      -0.52762836       0.14380644      -0.17387950
N        2.30904700      -0.20855100      12.75047900       0.73093609       0.60719578      -0.61621084
C        3.01927100      -2.33107700      17.07405300      -0.66240626       0.15203505       0.94156726
C        3.10731300      -2.69344600      18.42512500       0.21922209      -0.19529345      -0.58228981
C        2.82879000      -1.75721900      19.42885600       0.32064914      -0.47851000      -0.95460481
C        2.48543100      -0.46545200      19.02318900      -0.08603251      -0.27341951       0.37931349
C        2.43829300      -0.15439900      17.67029300       0.26959356      -0.18458635       0.16015285
C        0.98256700      -2.09518400      12.89396500      -0.01792609       0.21327966      -0.15129977
C        1.55953200      -1.05101600      12.08215500      -0.12944292      -0.02003579       0.13995349
H        3.07812600      -3.07157700      16.30662100       0.44078754      -0.23906978      -0.59988829
H        3.42030800      -3.72094800      18.62900700      -0.17084591       0.19951834       0.20476396
H        2.92575100      -2.10453900      20.43642300      -0.14033113       0.26607876       0.78186903
H        2.22495700       0.29391100      19.74556600       0.04145590       0.24769665       0.13137896
H        2.23940100       0.84392400      17.34791100      -0.21821417       0.50791741      -0.36636320
H        0.83600200      -2.69092900      14.77046000       0.23163101      -0.12800418       0.19500256
H        0.23201800      -2.78807900      12.51874400       0.10178453      -0.06557296       0.04723328
H        1.33977600      -0.93099400      11.02716000       0.08084012      -0.04003815      -0.13421519
H        2.79220500       0.55680900      12.21290800      -0.58474809      -0.70320664       0.72093142
23
Properties=species:S:1:pos:R:3:forces:R:3 energy=-52298.826428969915 pbc="F F F"
Ir       2.51931800      -0.57162200      14.71439400       0.02460001       0.02653605      -0.13213296
Cl       3.84320300       1.35346400      15.12232100       0.02132324       0.00416863      -0.02926651
Cl       4.50204400      -1.85589800      14.27404500       0.03772241      -0.04279329      -0.01099877
Cl       0.53409900       0.70919600      15.18569600      -0.08297033       0.03590248       0.06002256
N        2.65902300      -1.08367000      16.71366900      -0.00766256      -0.01178527       0.05459589
N        1.33200300      -2.06426700      14.13430300      -0.13929390       0.19281990      -0.18671414
N        2.30399900      -0.20257400      12.75965100       0.41033596       0.35123195      -0.31832481
C        2.97633800      -2.34985200      17.08580800      -0.30481366       0.16487432       0.44217810
C        3.08703200      -2.71386200      18.42918500       0.05080104       0.08220527      -0.20736972
C        2.85115600      -1.75967300      19.42726500       0.07802214      -0.10348187      -0.49930287
C        2.52135500      -0.45951100      19.03241100       0.00319192      -0.27767993      -0.06922218
C        2.44780100      -0.14881200      17.67658400       0.14851233      -0.18623299       0.06700059
C        0.97828500      -2.08851700      12.86365300       0.00409767       0.05767103       0.01472697
C        1.56466500      -1.03752700      12.07001100      -0.01968041      -0.02452288       0.29154440
H        3.10085900      -3.06374600      16.29134600       0.23365617      -0.15629218      -0.31693060
H        3.37476900      -3.73323000      18.66251900      -0.04612529      -0.08237429       0.09575447
H        2.93952100      -2.04523000      20.46193400      -0.02868734       0.03885184       0.41472684
H        2.30977600       0.31160300      19.75402300       0.00174619       0.26599874       0.23629016
H        2.24223100       0.84752700      17.32759500      -0.13231798       0.27223752      -0.15670248
H        0.85332200      -2.72125000      14.74893800       0.04320312      -0.16594888       0.12995277
H        0.26684300      -2.80951100      12.46931200       0.03494227      -0.03512698       0.00944942
H        1.38524000      -0.92219700      11.01174500      -0.00415974       0.01530557      -0.27614786
H        2.77482100       0.57785900      12.26089200      -0.32644333      -0.42156479       0.38687079
23
Properties=species:S:1:pos:R:3:forces:R:3 energy=-52298.86489580153 pbc="F F F"
Ir       2.50872000      -0.57516400      14.71304400      -0.03821781       0.03869984      -0.02657040
Cl       3.87670600       1.32592200      15.09297700      -0.01122785      -0.01365739       0.01547455
Cl       4.46868300      -1.90346800      14.26832800      -0.00016733      -0.00071472      -0.03500922
Cl       0.53477800       0.72960100      15.21718200       0.02128149      -0.00338727      -0.02240624
N        2.64886300      -1.08467300      16.71985700      -0.00580067       0.01743290       0.03423501
N        1.30317800      -2.05218700      14.12648100       0.02645028       0.02558510      -0.01878433
N        2.30309000      -0.20408200      12.76653300       0.17745097       0.32862645      -0.18919562
C        2.97508800      -2.34995800      17.09007200      -0.01445670       0.02358123      -0.00957355
C        3.08323400      -2.72121400      18.42754100       0.01189891       0.00913482       0.07677685
C        2.85298800      -1.76294500      19.42193200      -0.03689631       0.06982279       0.00492577
C        2.52435700      -0.45945400      19.03607300       0.00626393      -0.07705509      -0.15427032
C        2.43408000      -0.14641800      17.67915400       0.04278727      -0.03028575       0.00317747
C        0.96712400      -2.08109800      12.85224700       0.00423805      -0.02816885       0.06236499
C        1.55751200      -1.02624000      12.06837000       0.02436948      -0.00505320       0.07827200
H        3.18591800      -3.03494100      16.27545400       0.00416894      -0.03405046      -0.01893160
H        3.35801400      -3.74212000      18.67908800      -0.01184317      -0.01078357      -0.02127053
H        2.93013600      -2.01728300      20.47572900       0.01620628      -0.06000842       0.02850243
H        2.33813600       0.31816800      19.76632300      -0.00116476       0.09244927       0.09854057
H        2.19632900       0.84720600      17.31528000      -0.00872350       0.00260988       0.01766523
H        0.87425000      -2.74713400      14.74085000      -0.00601448      -0.04177040      -0.00444251
H        0.28820300      -2.82679000      12.44728300       0.00377407      -0.00132386      -0.00930539
H        1.39814300      -0.91061100      11.00246500      -0.02240243       0.02038186      -0.10728371
H        2.76016800       0.59358400      12.29503700      -0.18197467      -0.32206515       0.19710850
23
Properties=species:S:1:pos:R:3:forces:R:3 energy=-52298.85795145582 pbc="F F F"
Ir       2.48210500      -0.56003300      14.71628000      -0.06127731       0.02878916       0.02678714
Cl       3.76658400       1.39346100      15.11726400       0.03326283       0.03226997      -0.05235995
Cl       4.50048700      -1.79371000      14.25144900      -0.05007733      -0.03562547       0.07117585
Cl       0.44906300       0.65026600      15.22565800       0.08263835      -0.01256411       0.04798476
N        2.63856300      -1.07594200      16.72529700       0.03315926       0.01064493      -0.01215407
N        1.35705500      -2.09144400      14.10942600       0.07972092       0.00893849       0.00949580
N        2.26159200      -0.17656600      12.77618500       0.05629888       0.18125055      -0.07299686
C        2.86680000      -2.36305400      17.09480800       0.06160256       0.06498819      -0.11037253
C        2.97022900      -2.73897900      18.43146400      -0.01399128       0.00609845       0.03715008
C        2.85029700      -1.76084800      19.42551400      -0.02105744       0.08846776       0.07775361
C        2.63266700      -0.43407900      19.04046800       0.01486463      -0.05388184      -0.11440042
C        2.53042900      -0.11962700      17.68466600      -0.08645212      -0.01501900      -0.02478379
C        1.03298100      -2.12666000      12.83303400      -0.00140845      -0.01698995       0.01238336
C        1.56262100      -1.02792000      12.06482400       0.02887303      -0.02046161       0.07105131
H        3.01294200      -3.06381000      16.27652100      -0.00854491      -0.00162201       0.03421311
H        3.15083300      -3.77918200      18.68304100       0.01918382      -0.05477494      -0.01335225
H        2.92897600      -2.01695400      20.48107000       0.00822630      -0.05223623      -0.05096765
H        2.54592500       0.36090800      19.77255500      -0.01477809       0.05965860       0.06017019
H        2.36254000       0.88978500      17.32089600      -0.00859499      -0.04463420       0.03353017
H        0.98478700      -2.82988800      14.71006700      -0.04593117      -0.01805866      -0.01747461
H        0.41022200      -2.91217100      12.41330200      -0.00214363       0.00483918      -0.00947344
H        1.40097500      -0.90668900      10.99927600      -0.02903110       0.01799767      -0.08324096
H        2.66902700       0.65183700      12.32423700      -0.07454282      -0.17807488       0.07988104
23
Properties=species:S:1:pos:R:3:forces:R:3 energy=-52298.87027984638 pbc="F F F"
Ir       2.50162400      -0.56773300      14.71200600      -0.03723873       0.02568933       0.02368526
Cl       3.85409600       1.34531900      15.08683400      -0.01079257      -0.00174033       0.01024991
Cl       4.47337700      -1.87476500      14.25034200      -0.01657837      -0.01116738       0.01044238
Cl       0.51576000       0.71144200      15.23184400       0.03564238      -0.00551995      -0.00892152
N        2.65150400      -1.07772800      16.72209200       0.00234264      -0.00258401      -0.00531689
N        1.32669600      -2.06794800      14.12086500       0.05635910       0.00547064       0.00710972
N        2.28025200      -0.18958900      12.77061800       0.04538887       0.13484506      -0.06448235
C        2.94025200      -2.35223400      17.09193000       0.04395666       0.01044326      -0.06497821
C        3.03637200      -2.72821600      18.42948800      -0.02609577       0.05751913       0.02727591
C        2.84298000      -1.76249000      19.42435000      -0.02089279       0.05177888       0.05615783
C        2.56174500      -0.44778500      19.03862700       0.01391368      -0.05265471      -0.09106653
C        2.47061400      -0.13351200      17.68216600      -0.01003450       0.00908510      -0.01891931
C        0.99461400      -2.10151300      12.84655400      -0.00267986      -0.00981683       0.00320138
C        1.55190300      -1.02368700      12.06828300       0.02742051      -0.01686777       0.08070333
H        3.13991400      -3.04159800      16.27547700      -0.02599889       0.00166248       0.02373946
H        3.26752000      -3.75822100      18.67946600       0.02477453      -0.06891303      -0.00322164
H        2.91406500      -2.02233700      20.47931100       0.00905327      -0.02919015      -0.03679496
H        2.41597300       0.33801900      19.77147100      -0.01664635       0.05738384       0.05520776
H        2.25238600       0.86623400      17.31958600       0.01687965      -0.02861314       0.02362901
H        0.93408100      -2.79144600      14.72652900      -0.02720798      -0.02146033       0.00368244
H        0.34603600      -2.87018600      12.43482900      -0.00109421       0.00144013      -0.00631890
H        1.38592000      -0.90286400      11.00331700      -0.02461569       0.01645177      -0.08254106
H        2.71001500       0.62153700      12.31131200      -0.05585563      -0.12324209       0.05747686
23
Properties=species:S:1:pos:R:3:forces:R:3 energy=-52298.87141047947 pbc="F F F"
Ir       2.50073900      -0.56638300      14.71289100      -0.01617389       0.01093274       0.01764430
Cl       3.85544000       1.34419100      15.09005500      -0.00474523       0.00105647       0.00237205
Cl       4.46771200      -1.88094500      14.25507900       0.00159362      -0.00501339      -0.00401390
Cl       0.52025900       0.71732900      15.23197500       0.01621276      -0.00037584      -0.00705063
N        2.65187300      -1.07603400      16.72094600       0.00629566      -0.00346405      -0.00739953
N        1.32857600      -2.06908100      14.12257400       0.02240403      -0.00156277      -0.00281304
N        2.27846200      -0.18827900      12.77118300       0.03736513       0.09854129      -0.05479633
C        2.94231800      -2.35002800      17.08979000       0.01284770      -0.00771141      -0.01245011
C        3.03679500      -2.72634000      18.42798300      -0.01700883       0.04420899      -0.00522484
C        2.84065000      -1.76171100      19.42378400      -0.00007883       0.00860291       0.02088060
C        2.56024800      -0.44696600      19.03752700       0.01058369      -0.03558232      -0.03227907
C        2.47141500      -0.13251200      17.68131900      -0.01033213       0.01202819      -0.00263291
C        0.99732100      -2.10366900      12.84796700      -0.00223568       0.00221861      -0.00569479
C        1.55174600      -1.02429600      12.06939900       0.01235935      -0.00884799       0.05143734
H        3.13822800      -3.04118700      16.27429200      -0.01446508       0.00687359       0.01596054
H        3.26998500      -3.75738400      18.67487800       0.01518087      -0.04263434       0.00700569
H        2.91233100      -2.02753200      20.47690800      -0.00035363      -0.00080630      -0.01963032
H        2.41316600       0.33951300      19.77102200      -0.01103780       0.03076891       0.02797870
H        2.25548700       0.86786500      17.32079700       0.00902149      -0.01526695       0.00894003
H        0.93550500      -2.79444600      14.72651000      -0.00975358      -0.00522962       0.00342348
H        0.35066400      -2.87352800      12.43529600       0.00083931      -0.00051926      -0.00161069
H        1.38174300      -0.90186400      11.00413200      -0.01145668       0.00612699      -0.04694192
H        2.70703800       0.62198500      12.31099300      -0.04706240      -0.09434438       0.04689543
23
Properties=species:S:1:pos:R:3:forces:R:3 energy=-52298.87175361504 pbc="F F F"
Ir       2.50164000      -0.56520900      14.71292000      -0.00418601      -0.00322103       0.00484401
Cl       3.85666400       1.34509400      15.08942400      -0.00118446       0.00057840       0.00094359
Cl       4.46681100      -1.88206500      14.25203600       0.00298227      -0.00151546      -0.00100304
Cl       0.52577200       0.72166200      15.23320200      -0.00222364       0.00164031      -0.00320123
N        2.65434600      -1.07524900      16.72054500      -0.00244188      -0.00453373      -0.00644447
N        1.33320900      -2.07115100      14.12272200      -0.00175935      -0.00130602       0.00143133
N        2.27442300      -0.18564100      12.77140200       0.02271637       0.03624921      -0.02478806
C        2.94119200      -2.34979200      17.08986300       0.00380446      -0.00881940       0.00388694
C        3.03396400      -2.72594700      18.42841500      -0.00865932       0.03305457      -0.01853375
C        2.83858800      -1.76120100      19.42435200       0.00336485      -0.01367544       0.00404059
C        2.56041900      -0.44640300      19.03737400       0.00447912      -0.00951488       0.00245947
C        2.47426000      -0.13195900      17.68116300      -0.00222822       0.01076593       0.00037497
C        1.00089400      -2.10605500      12.84833900      -0.00164736       0.00227255      -0.00808237
C        1.54985500      -1.02385800      12.07010500       0.00187937      -0.00106166       0.02244691
H        3.13223200      -3.04309400      16.27543100      -0.00219644       0.00706632       0.00575912
H        3.26622800      -3.75782700      18.67430800       0.00818269      -0.03014660       0.01081956
H        2.90887400      -2.02951800      20.47663000      -0.00156313       0.00968010      -0.00687621
H        2.41228600       0.34105500      19.77108100      -0.00425903       0.00644946       0.00436656
H        2.26141200       0.86892000      17.32159800       0.00443448      -0.00231163      -0.00085196
H        0.94224700      -2.79906600      14.72544300       0.00127038       0.00320786       0.00244450
H        0.35756800      -2.87841400      12.43506200       0.00066221      -0.00088580       0.00177452
H        1.37559700      -0.90000200      11.00471600      -0.00155233       0.00099255      -0.01553857
H        2.69921900       0.62442100      12.31117000      -0.01987514      -0.03496577       0.01972761
23
Properties=species:S:1:pos:R:3:forces:R:3 energy=-52298.87179933017 pbc="F F F"
Ir       2.50068300      -0.56498500      14.71314400       0.00131126      -0.00518535       0.00332305
Cl       3.85565000       1.34523800      15.09019700       0.00030447       0.00035594       0.00022775
Cl       4.46568400      -1.88268800      14.25284900       0.00293594       0.00017612      -0.00132047
Cl       0.52522300       0.72297100      15.23160100      -0.00230890       0.00057634      -0.00038942
N        2.65336100      -1.07525600      16.72068400      -0.00059177      -0.00084420      -0.00310862
N        1.33265300      -2.07101300      14.12261300      -0.00325368      -0.00101127       0.00196597
N        2.27460800      -0.18558300      12.77138100       0.01082712       0.01948182      -0.01366022
C        2.94066700      -2.34976300      17.08987700       0.00020492      -0.00750634       0.00114203
C        3.03425300      -2.72604700      18.42824100      -0.00580504       0.02654680      -0.01233610
C        2.83917200      -1.76144400      19.42434800       0.00305293      -0.00935223       0.00322859
C        2.56084400      -0.44662000      19.03763400       0.00179715      -0.00077616       0.00488900
C        2.47425700      -0.13187000      17.68147800      -0.00242147       0.00538615       0.00029357
C        1.00123300      -2.10625800      12.84797100      -0.00135883       0.00153289      -0.00491914
C        1.55042100      -1.02402400      12.07000400       0.00068376      -0.00020811       0.01001779
H        3.13115900      -3.04291100      16.27531100      -0.00149926       0.00457302       0.00385532
H        3.26727200      -3.75796300      18.67414600       0.00588315      -0.02401097       0.00805825
H        2.91001100      -2.02934800      20.47660200      -0.00139626       0.00640138      -0.00457785
H        2.41269200       0.34096000      19.77157700      -0.00166669      -0.00015411      -0.00078974
H        2.26233000       0.86920400      17.32207800       0.00135333      -0.00090112      -0.00152240
H        0.94133500      -2.79875100      14.72539800       0.00226823       0.00395050       0.00041534
H        0.35858000      -2.87903900      12.43445500       0.00006906      -0.00018502       0.00114095
H        1.37654300      -0.90029200      11.00425200       0.00021921      -0.00034550      -0.00631540
H        2.69906900       0.62418300      12.31145900      -0.01060853      -0.01850053       0.01038176
23