25
Properties=species:S:1:pos:R:3:forces:R:3 energy=-19551.77317768626 pbc="F F F"
Mo       0.33780000      -1.82430000       3.03530000      -1.08475401       0.08476028      -0.12175938
O        2.23080000      -2.82090000       0.77990000       1.53415706      -0.86862619      -2.00521868
O        2.20860000      -3.37000000       4.97500000       1.87087287      -1.63101932       2.04465385
O        2.17230000       0.66370000       3.30340000       1.65571929       2.50793397       0.24564723
C        1.52630000      -2.45310000       1.61110000      -1.08520878       0.65787711       1.53464814
C        1.51940000      -2.79320000       4.26620000      -1.42910378       1.32892789      -1.63527238
C        1.52040000      -0.27560000       3.20900000      -1.16814831      -1.98792595      -0.15834402
C       -1.56890000      -1.40400000       1.64210000      -0.24793150       0.62446254      -0.21051875
C       -1.59680000      -2.75270000       2.05900000      -0.16540540       2.20196341       2.77988831
H       -1.49530000      -3.46570000       1.38000000       0.16371043      -3.29011724      -3.17425520
C       -1.62600000      -3.10780000       3.41360000      -0.15967303       3.22962324      -1.12223041
H       -1.55550000      -4.05870000       3.68120000       0.09477514      -4.32541757       1.19171330
C       -1.58550000      -2.09200000       4.39110000      -0.24359158       0.60050145      -3.34841686
H       -1.48780000      -2.32860000       5.34650000       0.21394871      -1.08457943       4.44233417
C       -1.54660000      -0.76110000       3.99750000      -0.34316594      -2.20120411      -2.31790341
H       -1.40280000      -0.06390000       4.68530000       0.36726011       3.28189748       3.15495069
C       -1.52860000      -0.38780000       2.62960000      -0.14878214       0.03464603      -0.45731274
C       -1.52310000       1.07180000       2.27240000       0.20094633      -5.43631738       1.26560064
H       -2.43580000       1.38330000       2.16960000      -5.77568719       1.97998499      -0.65887578
H       -1.04230000       1.19900000       1.43980000       2.96237638       0.94803168      -5.10544636
H       -1.08670000       1.57560000       2.97790000       2.68678321       3.14029859       4.31099332
C       -1.65410000      -1.09440000       0.17360000       0.61325392      -1.03212398       5.46934110
H       -2.58290000      -0.97220000      -0.07740000      -5.87997746       0.78031028      -1.59664104
H       -1.27510000      -1.82920000      -0.33400000       2.34156826      -4.51055012      -3.18618162
H       -1.15880000      -0.28180000      -0.01440000       3.02605737       4.96666242      -1.34139419
25
Properties=species:S:1:pos:R:3:forces:R:3 energy=-19553.894817535627 pbc="F F F"
Mo       0.33720400      -1.82714400       3.03838500      -0.58952880       0.08175702      -0.09370756
O        2.22832200      -2.83154500       0.75474800       0.76799767      -0.45749930      -1.06753656
O        2.21573500      -3.38360800       4.99995000       0.96597675      -0.85912503       1.09326246
O        2.17716900       0.68581800       3.30742200       0.84976786       1.32542553       0.12746528
C        1.53083200      -2.45923600       1.60464300      -0.52978325       0.33371780       0.77298592
C        1.52658000      -2.79995600       4.27627200      -0.72902746       0.69017104      -0.84573987
C        1.52619700      -0.26875700       3.21271200      -0.57195212      -1.02267281      -0.06741551
C       -1.57004700      -1.40443800       1.63960800      -0.21025110       0.42289693      -0.24089197
C       -1.59777500      -2.76366200       2.05945500       0.05491671       0.95012121       1.40956206
H       -1.49700500      -3.50727700       1.35146700      -0.03999655      -1.64996753      -1.62772388
C       -1.62660400      -3.12098100       3.41934200       0.01190539       1.49312816      -0.57154964
H       -1.55746200      -4.11198500       3.69716300      -0.04108813      -2.18283646       0.59728870
C       -1.58604700      -2.09939100       4.40303400      -0.01390098       0.26572101      -1.56607726
H       -1.48881900      -2.34596600       5.39933900       0.01250137      -0.54289922       2.24168758
C       -1.54759000      -0.75883600       4.00755200      -0.03912947      -1.03150682      -1.02632985
H       -1.40293000      -0.03119300       4.72447500       0.06626227       1.68234888       1.58191093
C       -1.52976300      -0.38532300       2.63038600      -0.11616507       0.09877300      -0.32380815
C       -1.52434900       1.08203700       2.27055300       0.14496739      -2.88619248       0.66292861
H       -2.48757700       1.40962700       2.16261700      -2.86559856       1.02598301      -0.33836774
H       -1.01875100       1.22307600       1.39404800       1.46011926       0.57112556      -2.51482411
H       -1.06558200       1.61394200       3.01354400       1.31967516       1.60931967       2.12084942
C       -1.65438600      -1.09211000       0.16304700       0.38854987      -0.53863520       2.91793363
H       -2.63439800      -0.96372000      -0.10128400      -2.92082514       0.39616645      -0.84150778
H       -1.25579800      -1.86600900      -0.37284500       1.14324851      -2.22094679      -1.63218336
H       -1.13415500      -0.23696200      -0.04233300       1.48135837       2.44562636      -0.76821133
25
Properties=species:S:1:pos:R:3:forces:R:3 energy=-19554.851100662312 pbc="F F F"
Mo       0.35906000      -1.83047000       3.04043900       0.60009429       0.03237112       0.04402372
O        2.16427600      -2.85201400       0.64495900       0.05790222       0.07068632       0.23054523
O        2.21625600      -3.39980700       5.07764200      -0.00428217       0.10171763      -0.18141664
O        2.16751900       0.75571000       3.31557200      -0.00335755      -0.20927665      -0.00859211
C        1.55939200      -2.46640900       1.57535700      -0.41537270      -0.02575058      -0.24326546
C        1.57059700      -2.80733800       4.29631800      -0.27457795      -0.02706163       0.16543111
C        1.56119600      -0.24629900       3.21985400      -0.25605181       0.12458050       0.00035342
C       -1.56490900      -1.40652000       1.63171800       0.02146439       0.04412497      -0.03560294
C       -1.58796200      -2.78909700       2.06311900       0.14783186      -0.00385342       0.02223968
H       -1.55064600      -3.57414600       1.30448000      -0.08300293       0.13047480       0.09676589
C       -1.60930000      -3.15309600       3.43386100       0.12039207       0.06824300      -0.02833659
H       -1.58866300      -4.20436900       3.72464200      -0.05880252       0.17279969      -0.03835068
C       -1.56819100      -2.11753300       4.43081600       0.11561095       0.04665195      -0.06055175
H       -1.52075700      -2.37727300       5.48952300      -0.05832131       0.04394422      -0.15713535
C       -1.53733300      -0.75651400       4.03086600       0.15630683      -0.10830161      -0.01613419
H       -1.45148200       0.02635800       4.78743200      -0.09273214      -0.11901838      -0.12091585
C       -1.52209300      -0.37978800       2.63195800       0.03178665       0.02774046      -0.05468094
C       -1.51924500       1.10453800       2.28706200       0.02406779      -0.28507926       0.08894496
H       -2.54994000       1.45894500       2.16030300      -0.05928707       0.02742745      -0.02236330
H       -0.96829900       1.31937000       1.36803200       0.01784140      -0.05056640      -0.03947122
H       -1.05630900       1.67897000       3.09544400       0.00209031       0.00424299       0.02995850
C       -1.63948800      -1.10718300       0.13889000       0.04992018      -0.09190887       0.30477905
H       -2.68565500      -0.95886200      -0.15738500      -0.06553125       0.02315011      -0.03242722
H       -1.23809900      -1.94765200      -0.43571600       0.00276754      -0.03703016      -0.00391877
H       -1.07692300      -0.21312100      -0.14188400       0.02324298       0.03969182       0.06012150
25
Properties=species:S:1:pos:R:3:forces:R:3 energy=-19554.864738546396 pbc="F F F"
Mo       0.34914500      -1.82740900       3.03623900      -0.45265210       0.10199608      -0.02685579
O        2.25167300      -2.83680400       0.72237400      -0.20419739       0.01419501      -0.07670609
O        2.27091900      -3.37929100       5.01125800      -0.14664787       0.01095455       0.05396191
O        2.22109700       0.70361800       3.31332900      -0.14564077       0.01294684      -0.00790486
C        1.52701100      -2.46090900       1.56589400       0.34077728      -0.00324180       0.18700607
C        1.54850000      -2.80018900       4.29077600       0.24930837       0.02101903      -0.15681782
C        1.53865700      -0.24652700       3.21284600       0.24772478      -0.11658175       0.00702600
C       -1.57129500      -1.40551400       1.63629000      -0.01845754      -0.01225779      -0.04342516
C       -1.59536500      -2.78429700       2.06485500       0.10111543      -0.09056912      -0.01796934
H       -1.56877300      -3.56666600       1.30612800      -0.06681012       0.06827925       0.05480862
C       -1.61478900      -3.14579100       3.43189300       0.07100287      -0.09105671      -0.00685574
H       -1.60288200      -4.19439200       3.72353600      -0.04913641       0.08645957      -0.02092950
C       -1.57144100      -2.11346500       4.42601300       0.07770219       0.01290344       0.07582045
H       -1.53042800      -2.37235700       5.48292800      -0.04973511       0.02305354      -0.08288435
C       -1.54068400      -0.75753900       4.02704200       0.10740496       0.01220498       0.08728716
H       -1.46364200       0.02454900       4.78187100      -0.07683429      -0.05734764      -0.06309328
C       -1.52755000      -0.38306100       2.63186600       0.01162041       0.04388344       0.00078347
C       -1.52421300       1.09064800       2.28154300       0.02180080      -0.04521368       0.02329296
H       -2.55585700       1.44873900       2.15100200       0.01823200       0.01331929      -0.01101425
H       -0.97288100       1.28874600       1.35678600      -0.01727380       0.01050121       0.03134622
H       -1.05630300       1.67005800       3.08585200      -0.02859509      -0.00182492      -0.02861283
C       -1.64348900      -1.10256500       0.15418300       0.03904004      -0.02102710       0.04915847
H       -2.68987400      -0.94828000      -0.14807400       0.01539453       0.01016331      -0.01954409
H       -1.23819900      -1.94104200      -0.42412100      -0.02641320       0.02984789       0.00053901
H       -1.07633800      -0.20386000      -0.10900700      -0.01873003      -0.03260699      -0.00841723
25
Properties=species:S:1:pos:R:3:forces:R:3 energy=-19554.884895598283 pbc="F F F"
Mo       0.35611400      -1.82678300       3.03594300      -0.03596182       0.01143575       0.00440831
O        2.18793500      -2.83185800       0.66741900      -0.00932647      -0.00959901       0.00319701
O        2.23306900      -3.38254100       5.04589000      -0.00118775       0.00116276      -0.00802195
O        2.18262100       0.73182900       3.31224500       0.00064303      -0.00157089      -0.00168649
C        1.53237100      -2.45831800       1.56597100      -0.01662342       0.01376003      -0.05368171
C        1.55718400      -2.79737700       4.28693000      -0.00501401      -0.01697772       0.04727596
C        1.54483000      -0.24826000       3.21226400       0.00507988       0.02882125       0.00837311
C       -1.56355300      -1.40731200       1.63802200      -0.02082774      -0.04244300      -0.01810262
C       -1.58650300      -2.78536600       2.06673400       0.06182449      -0.05339184      -0.03426144
H       -1.56990900      -3.56609300       1.30800500      -0.04152815       0.03103646       0.02636029
C       -1.60466000      -3.14643000       3.43274300       0.04502629      -0.06291531       0.01382703
H       -1.60008300      -4.19358100       3.72442700      -0.02957005       0.03753122      -0.00819339
C       -1.56131500      -2.11464800       4.42629600       0.04122229      -0.01581666       0.05477983
H       -1.52766300      -2.37270000       5.48226900      -0.02799901       0.00823658      -0.03798980
C       -1.53246600      -0.76009200       4.02754800       0.06598197       0.03099362       0.04304541
H       -1.46673400       0.02198800       4.78137800      -0.04735052      -0.02419089      -0.02937851
C       -1.52008600      -0.38534200       2.63307600      -0.00285423       0.02713419       0.03021406
C       -1.51882800       1.08642000       2.28365700       0.01448529       0.01719652      -0.00029408
H       -2.55008200       1.44272800       2.14206400       0.02558520       0.00193928      -0.00781687
H       -0.95953900       1.28609200       1.36396700      -0.01411088       0.01468825       0.02975101
H       -1.06113600       1.66874300       3.09176000      -0.02262710      -0.00677738      -0.03104556
C       -1.63407800      -1.10533100       0.15790600       0.02693781       0.00180666      -0.01787791
H       -2.67871600      -0.94034900      -0.14649800       0.02465863       0.00656362      -0.00540173
H       -1.23712800      -1.94715100      -0.42143700      -0.02053422       0.03174068       0.00583311
H       -1.05864400      -0.21186800      -0.10528000      -0.01592948      -0.03036416      -0.01331302
25
Properties=species:S:1:pos:R:3:forces:R:3 energy=-19554.887285329416 pbc="F F F"
Mo       0.35807600      -1.82540600       3.03605800      -0.00978459       0.04082105       0.02656459
O        2.17059600      -2.83624900       0.65529800       0.01476744       0.01020666      -0.00533910
O        2.23533900      -3.38219900       5.04594300      -0.00087469       0.00384221       0.00355203
O        2.18011600       0.73705000       3.31087300       0.00521163       0.00213607       0.00120163
C        1.52876000      -2.45407300       1.55992900      -0.05137666      -0.02662820      -0.03424211
C        1.55950500      -2.79546900       4.28834400      -0.00103981      -0.02294869       0.01531848
C        1.54464700      -0.24457100       3.21233900      -0.00382796       0.01976757       0.00392412
C       -1.56113400      -1.40871400       1.63918400      -0.00611887      -0.02326746      -0.00837465
C       -1.58321200      -2.78669400       2.06851800       0.03230129      -0.02165044      -0.02649676
H       -1.57620200      -3.56640200       1.31008400      -0.01922049       0.00351922       0.00393831
C       -1.59978800      -3.14766700       3.43433600       0.02549105      -0.03199918       0.00772102
H       -1.60212200      -4.19373000       3.72618700      -0.01451059       0.00318472      -0.00119448
C       -1.55706400      -2.11589100       4.42769000       0.01760578      -0.01391260       0.02579033
H       -1.53042200      -2.37374300       5.48288100      -0.01155516       0.00147216      -0.00407700
C       -1.53031800      -0.76153900       4.02909800       0.03474815       0.02287135       0.00812926
H       -1.47614500       0.02060000       4.78227200      -0.02201805      -0.00168263      -0.00286441
C       -1.51841500      -0.38594800       2.63476300       0.00344415       0.01241473       0.01033383
C       -1.51893300       1.08614800       2.28582800      -0.00233847       0.02805917      -0.01320015
H       -2.54911500       1.43955600       2.12965100       0.01933763      -0.00872453      -0.00355779
H       -0.94898400       1.29111200       1.37413800      -0.00445526      -0.00274980       0.01579691
H       -1.07559100       1.67188700       3.09894800      -0.01358211      -0.01242141      -0.01525158
C       -1.62886300      -1.10737000       0.15855600       0.00433041       0.01430958      -0.03049329
H       -2.67081600      -0.92831400      -0.14739800       0.01975579       0.00276368       0.00695530
H       -1.24417300      -1.95369100      -0.42187200      -0.01168047       0.01617003       0.01286765
H       -1.04274200      -0.22228300      -0.10834800      -0.00461014      -0.01555322       0.00299786
25
Properties=species:S:1:pos:R:3:forces:R:3 energy=-19554.88898800026 pbc="F F F"
Mo       0.36027900      -1.82468500       3.03562200       0.00526248      -0.00870956       0.03037455
O        2.15163100      -2.82136200       0.63269500       0.01128396      -0.01722814      -0.00756964
O        2.23166800      -3.38000700       5.05332100       0.01477644      -0.00825499      -0.00410405
O        2.17698100       0.74255000       3.30869300       0.00994739       0.00801058       0.00254370
C        1.51849100      -2.45139500       1.54830700      -0.02624197       0.02877209      -0.02116383
C        1.56277800      -2.79573200       4.28799200      -0.02390324       0.00328119       0.02020826
C        1.54461500      -0.24095800       3.21063100      -0.00753822      -0.00122647      -0.00619754
C       -1.55816900      -1.41179800       1.64201500       0.00949395      -0.01205431       0.00781816
C       -1.57980200      -2.78980500       2.07185000      -0.00903661       0.02212157      -0.00345279
H       -1.58736300      -3.56847300       1.31396400       0.01276481      -0.02694804      -0.02029171
C       -1.59310500      -3.15015400       3.43793900      -0.00293939       0.01518267       0.00009966
H       -1.60573000      -4.19490000       3.73026500       0.00714700      -0.03357414       0.00732173
C       -1.55011300      -2.11779600       4.43094900      -0.01110773      -0.01051458      -0.01640606
H       -1.53259700      -2.37490600       5.48541100       0.01021402      -0.00742720       0.03234350
C       -1.52593600      -0.76354600       4.03198800      -0.01154575       0.01374172      -0.02892923
H       -1.48753300       0.01907500       4.78401300       0.01100345       0.02256575       0.02586674
C       -1.51548900      -0.38811000       2.63746000       0.00792537      -0.00766358       0.00363281
C       -1.51822200       1.08284200       2.28508000      -0.01860348       0.03961119      -0.02226097
H       -2.54615500       1.43005300       2.10318900       0.00937753      -0.01475423       0.00066067
H       -0.92966900       1.29048100       1.38625400       0.00700651      -0.01101404       0.00212687
H       -1.09829600       1.67493200       3.10515400      -0.00254740      -0.00972705       0.00366675
C       -1.62179500      -1.10807600       0.16191200      -0.02009862       0.02127279      -0.04387331
H       -2.65891800      -0.90338100      -0.14413900       0.01112990      -0.00110804       0.01534224
H       -1.25845800      -1.96138000      -0.42094300      -0.00164751      -0.00256966       0.01084034
H       -1.01609000      -0.23707000      -0.10632200       0.00787709      -0.00178553       0.01140315
25
Properties=species:S:1:pos:R:3:forces:R:3 energy=-19554.889507982636 pbc="F F F"
Mo       0.36014500      -1.82402500       3.03621500       0.00134186       0.00934298       0.02944505
O        2.14536100      -2.82316000       0.62915700       0.00621826      -0.00248579      -0.00709645
O        2.23451300      -3.38160000       5.05030200       0.00398948      -0.00236593       0.00302269
O        2.17645100       0.74398300       3.30963200       0.00589014       0.00456448      -0.00102782
C        1.51532800      -2.44916100       1.54535400      -0.01896636       0.00342682      -0.00471427
C        1.56276800      -2.79556000       4.28881900      -0.00426813      -0.00314970      -0.00430922
C        1.54405500      -0.23946600       3.21081900      -0.00450519      -0.00409464       0.00097527
C       -1.55749500      -1.41240000       1.64288600       0.00981858      -0.01482894       0.00726537
C       -1.57888700      -2.79060900       2.07246600      -0.01190647       0.02030652       0.00321290
H       -1.58712700      -3.56960000       1.31459300       0.01503149      -0.02050280      -0.01511037
C       -1.59170400      -3.15078800       3.43894900      -0.00685893       0.01798980      -0.00297384
H       -1.60483700      -4.19575500       3.73139100       0.00925638      -0.02453609       0.00571448
C       -1.54934300      -2.11800800       4.43204500      -0.01336424      -0.00436404      -0.01961582
H       -1.53235900      -2.37504900       5.48677600       0.01121736      -0.00555456       0.02405730
C       -1.52597700      -0.76330300       4.03295500      -0.01474574       0.00235832      -0.02729838
H       -1.48958500       0.01964300       4.78510000       0.01398634       0.01599926       0.01959695
C       -1.51543900      -0.38848300       2.63815100       0.00689565      -0.00895376       0.00727735
C       -1.51909600       1.08198500       2.28331900      -0.01551599       0.02532516      -0.01536265
H       -2.54623700       1.42552700       2.09169700       0.00429117      -0.00913642      -0.00068582
H       -0.92299200       1.28875700       1.38939400       0.00777928      -0.00634584      -0.00034813
H       -1.10788900       1.67607100       3.10609600      -0.00111257      -0.00332346       0.00584885
C       -1.62002300      -1.10668800       0.16298300      -0.01776406       0.01486494      -0.02831078
H       -2.65556000      -0.89304600      -0.14143800       0.00581249       0.00014290       0.00967223
H       -1.26401500      -1.96239500      -0.42048600      -0.00067049      -0.00516262       0.00434038
H       -1.00705500      -0.24047100      -0.10387500       0.00814983       0.00048347       0.00642478
25
Properties=species:S:1:pos:R:3:forces:R:3 energy=-19554.89023210483 pbc="F F F"
Mo       0.35961900      -1.82275700       3.03791900      -0.00497215       0.01681635       0.02925592
O        2.13001400      -2.81861700       0.61798700      -0.00228833       0.00577938      -0.00122364
O        2.23532200      -3.38417400       5.04905300      -0.00396711       0.00066448       0.00360654
O        2.17855700       0.74478300       3.30725400      -0.00844731       0.00152760       0.00353228
C        1.50727100      -2.44475700       1.53935000      -0.00044460      -0.00540235       0.00891000
C        1.56281500      -2.79655900       4.28945400       0.01055700      -0.00111653      -0.01962019
C        1.54290300      -0.23697900       3.21200200       0.01917380      -0.01395101      -0.00806519
C       -1.55580900      -1.41410800       1.64482800       0.00648072      -0.00854419      -0.00020631
C       -1.57664300      -2.79250300       2.07405000      -0.01478549       0.00864066       0.01155176
H       -1.58387600      -3.57254900       1.31638100       0.01483887      -0.00280980      -0.00203719
C       -1.58866000      -3.15210700       3.44128900      -0.01165625       0.01345680      -0.00544097
H       -1.60106600      -4.19763100       3.73413400       0.01041245      -0.00227044       0.00121485
C       -1.54785800      -2.11853100       4.43440000      -0.01337910       0.00458752      -0.01371997
H       -1.53031000      -2.37545400       5.48978700       0.00938576      -0.00075081       0.00279458
C       -1.52616300      -0.76301600       4.03505500      -0.01794121      -0.01406234      -0.01617723
H       -1.49198300       0.02042300       4.78771200       0.01550298       0.00051042       0.00248415
C       -1.51532000      -0.38947700       2.63985600       0.00095342      -0.00404105       0.00407109
C       -1.52131600       1.08043000       2.28007100      -0.00629103      -0.01251248      -0.00196844
H       -2.54569700       1.41436200       2.06161000      -0.00682942       0.00211833      -0.00407828
H       -0.90409100       1.28694000       1.40071600       0.00835907       0.00125146      -0.00742637
H       -1.13492200       1.67939700       3.11084300       0.00086003       0.00683749       0.00936092
C       -1.61653600      -1.10454900       0.16488500      -0.00832271       0.00230278       0.01267503
H       -2.64760100      -0.86656400      -0.13459600      -0.00615795       0.00340404      -0.00151572
H       -1.28173100      -1.96726000      -0.42014900       0.00094586      -0.00935547      -0.00625411
H       -0.98391900      -0.25234100      -0.10059100       0.00801264       0.00691910      -0.00172356
25
Properties=species:S:1:pos:R:3:forces:R:3 energy=-19554.89059115907 pbc="F F F"
Mo       0.35932100      -1.82227200       3.03923200       0.00816824       0.00998056       0.01094827
O        2.12067400      -2.81454500       0.61129700      -0.00541911       0.00665448       0.00153942
O        2.23522800      -3.38779500       5.04734500      -0.00448220       0.00176501       0.00225198
O        2.17618500       0.74667100       3.30994600      -0.00114095      -0.00381161      -0.00389810
C        1.50219400      -2.44243200       1.53629300       0.00937712      -0.00822249       0.01038453
C        1.56308800      -2.79833700       4.28884600       0.01216872      -0.00071384      -0.01952306
C        1.54351300      -0.23681900       3.21256600       0.00382225      -0.00564882       0.00714242
C       -1.55482600      -1.41524100       1.64604100       0.00030843      -0.00396387      -0.00695252
C       -1.57537100      -2.79352100       2.07537000      -0.01118451      -0.00020646       0.01144264
H       -1.57965300      -3.57438700       1.31802000       0.00974767       0.00746808       0.00536126
C       -1.58713200      -3.15244600       3.44300300      -0.01085684       0.00482730      -0.00397405
H       -1.59732500      -4.19821600       3.73635700       0.00767490       0.00985463      -0.00181772
C       -1.54713300      -2.11835400       4.43581900      -0.00924738       0.00652140      -0.00372213
H       -1.52752600      -2.37502500       5.49159300       0.00470106       0.00206511      -0.00932241
C       -1.52608100      -0.76265900       4.03600900      -0.01429297      -0.01376970      -0.00458237
H       -1.49051800       0.02103800       4.78884600       0.01064900      -0.00704400      -0.00756059
C       -1.51524800      -0.39008500       2.64066900      -0.00407546       0.00417136       0.00224704
C       -1.52278400       1.07934300       2.27731800       0.00143293      -0.02917832       0.00600646
H       -2.54464200       1.40653400       2.03883700      -0.01069821       0.00675743      -0.00548643
H       -0.89001000       1.28617100       1.40907900       0.00645954       0.00417588      -0.00862533
H       -1.15508500       1.68214600       3.11372200       0.00072130       0.00910628       0.00773290
C       -1.61531100      -1.10328400       0.16615700       0.00047653      -0.00527920       0.03106618
H       -2.64305800      -0.84755100      -0.12917400      -0.01071194       0.00473366      -0.00648612
H       -1.29672000      -1.97097500      -0.42045000       0.00068294      -0.00827782      -0.00921216
H       -0.96877700      -0.26155900      -0.09944100       0.00571896       0.00803485      -0.00496017
25
Properties=species:S:1:pos:R:3:forces:R:3 energy=-19554.890825068145 pbc="F F F"
Mo       0.35913300      -1.82176000       3.04095100       0.01372080       0.00716160       0.00781970
O        2.11417000      -2.81041700       0.60732000      -0.00100252       0.00338429       0.00410713
O        2.23512700      -3.39159400       5.04549600      -0.00178296       0.00258206       0.00097779
O        2.17889100       0.74534000       3.31000600      -0.00282960      -0.00314549       0.00010932
C        1.49975600      -2.44038800       1.53586900       0.00496346      -0.00216867       0.00473350
C        1.56354700      -2.79999000       4.28816300       0.00730960      -0.00205483      -0.01415068
C        1.54433500      -0.23713900       3.21473000       0.00776607      -0.00464069       0.00081689
C       -1.55433200      -1.41596000       1.64699400      -0.00547702      -0.00176367      -0.00914187
C       -1.57426600      -2.79400800       2.07653800      -0.00423543      -0.00790177       0.00550869
H       -1.57431200      -3.57525100       1.31944900       0.00183880       0.00991747       0.00695653
C       -1.58634000      -3.15242300       3.44426600      -0.00636153      -0.00236284      -0.00209206
H       -1.59339300      -4.19818400       3.73800100       0.00258586       0.01214923      -0.00266022
C       -1.54746700      -2.11805000       4.43673700      -0.00308157       0.00522870       0.00397508
H       -1.52561900      -2.37444800       5.49261300      -0.00066412       0.00289157      -0.01197661
C       -1.52686100      -0.76249500       4.03646700      -0.00653528      -0.00817477       0.00290180
H       -1.48867800       0.02130900       4.78917200       0.00326504      -0.00787323      -0.00980480
C       -1.51591700      -0.39053100       2.64117800      -0.00811944       0.00797793       0.00093814
C       -1.52481400       1.07815000       2.27485100       0.00631211      -0.02531760       0.00873363
H       -2.54432100       1.40002600       2.01941700      -0.00835742       0.00663062      -0.00449871
H       -0.87924300       1.28563400       1.41594100       0.00251516       0.00451727      -0.00468702
H       -1.17302800       1.68463300       3.11561700      -0.00069476       0.00661123       0.00285727
C       -1.61517600      -1.10203900       0.16756400       0.00638312      -0.00849770       0.02736929
H       -2.64035800      -0.83239000      -0.12440500      -0.00894358       0.00385249      -0.00673557
H       -1.30962500      -1.97327600      -0.42098400      -0.00033702      -0.00337401      -0.00693571
H       -0.95821000      -0.26834600      -0.09865200       0.00176218       0.00437077      -0.00512169
25
Properties=species:S:1:pos:R:3:forces:R:3 energy=-19554.890935655218 pbc="F F F"
Mo       0.35935800      -1.82161400       3.04179500       0.01194020       0.00313968      -0.00465149