12
Properties=species:S:1:pos:R:3:forces:R:3 energy=-38935.706018936304 pbc="F F F"
Ru      -0.06100000       8.07450000       7.19860000       0.14492230      -0.79830913       0.47614129
Cl      -2.03700000       8.04690000       5.82300000      -0.05395676       0.11242561      -0.22155084
Cl      -0.91220000       9.94080000       8.44680000       0.00734878       0.25884619       0.00770303
O       -1.46410000       6.18470000       9.07380000      -1.68899986      -2.25807101       2.25613373
O        2.42130000       8.14570000       8.95380000       3.13754812       0.02297127       2.25855972
O        0.97110000       5.73630000       5.54990000       1.77254406      -4.13445678      -2.82476887
O        0.78780000       9.49720000       5.83090000       5.17175583      -5.41408413       6.72206148
C       -0.90760000       6.88210000       8.38950000       1.24501376       2.20457673      -2.08369312
C        1.51170000       8.12100000       8.29190000      -2.76492310       0.27951904      -1.95129030
C        0.60840000       6.60010000       6.15310000      -1.78381012       3.95737739       2.39673827
H        0.81600000      10.33200000       6.11420000       0.20692230       5.86438706       2.72660451
H        0.39570000       9.53640000       5.09130000      -5.39436536      -0.09518214      -9.76263885
12
Properties=species:S:1:pos:R:3:forces:R:3 energy=-38936.897122256094 pbc="F F F"
Ru      -0.03803200       8.04928000       7.20838900       0.06056208      -0.34448152       0.12636716
Cl      -1.99436100       8.06486800       5.79082300       0.01284996       0.06254415      -0.12981197
Cl      -0.87274500       9.95429600       8.42750600       0.04052501       0.13046822      -0.00859746
O       -1.52034600       6.19003200       9.10550400      -0.44072296      -0.48678890       0.54175292
O        2.46979800       8.14206500       8.99344200       0.71120072       0.03407679       0.48463308
O        0.99671000       5.68842500       5.51616000       0.43643580      -0.97518392      -0.70814902
O        0.78167400       9.50788800       5.82894900       1.41563490      -0.84276253       0.63538243
C       -0.94398700       6.88462900       8.39910100       0.38009223       0.47846860      -0.50662337
C        1.54243100       8.11873600       8.31619400      -0.68656173       0.05428412      -0.38393366
C        0.62267600       6.57512200       6.13575000      -0.51672981       0.99229420       0.65365351
H        0.78054500      10.39629400       6.18312100      -0.28883780       0.92159770       0.59501744
H        0.30573700       9.52606500       5.01186200      -1.12444845      -0.02451696      -1.29969100
12
Properties=species:S:1:pos:R:3:forces:R:3 energy=-38937.06046540355 pbc="F F F"
Ru       0.01049800       8.00871500       7.20838400      -0.22574647       0.25465730      -0.25083227
Cl      -1.90025700       8.10088700       5.71422800       0.02314965      -0.01437859      -0.03165039
Cl      -0.78674400       9.98175200       8.37072600       0.03789050       0.01098833       0.01763335
O       -1.60072300       6.26228500       9.13065300      -0.00601268       0.11223457      -0.17440622
O        2.52669600       8.14926500       9.01047000      -0.22739003       0.07121848      -0.14278072
O        1.03774700       5.65716600       5.47070000      -0.11637719       0.19139391       0.05849661
O        0.78751500       9.51114400       5.82207500       0.54619805       0.12304704      -0.16272991
C       -0.98135800       6.89944500       8.39259000       0.21450258      -0.17978379       0.24907034
C        1.58272500       8.10643600       8.34148400       0.08505333      -0.21242831       0.08840456
C        0.64804500       6.53722700       6.11324300       0.09886674      -0.12983769       0.13990525
H        0.64496000      10.37278500       6.27420000      -0.17417024      -0.12125071       0.14935827
H        0.16099700       9.51059300       5.06804500      -0.25596429      -0.10586055       0.05953112
12
Properties=species:S:1:pos:R:3:forces:R:3 energy=-38937.10637672616 pbc="F F F"
Ru       0.02888200       8.00607700       7.19799500       0.00561560      -0.10164487       0.08483613
Cl      -1.85993400       8.11246800       5.67061500       0.04481058       0.03021921       0.00797032
Cl      -0.73500400      10.00690400       8.34628900       0.00901398       0.00102407      -0.03230992
O       -1.63576600       6.29651200       9.11058800       0.29194159       0.18763979      -0.25259111
O        2.53240400       8.18259500       9.00927200      -0.40296142      -0.07817085      -0.24265708
O        1.03384700       5.66161400       5.44488900      -0.19926272       0.41548439       0.37556261
O        0.81269000       9.50899800       5.81297800      -0.27116733       0.34984865      -0.26260221
C       -0.96218300       6.90675600       8.39420900      -0.29660696      -0.20123327       0.24850650
C        1.58930500       8.09059100       8.34131600       0.34146330       0.10440356       0.17066454
C        0.65875500       6.52575200       6.12270200       0.17088386      -0.34785774      -0.34712801
H        0.57934200      10.32179300       6.33720600       0.07025792      -0.25188539      -0.02442497
H        0.08776200       9.47764000       5.12874000       0.23601166      -0.10782765       0.27417321
12
Properties=species:S:1:pos:R:3:forces:R:3 energy=-38937.1165314712 pbc="F F F"
Ru       0.03358800       8.01303500       7.19213500       0.00508569       0.07525985      -0.00971332
Cl      -1.84294900       8.13367100       5.65418200      -0.00971687       0.00770945       0.00206244
Cl      -0.72052300      10.02514900       8.32699000      -0.00786675       0.00744808      -0.00474240
O       -1.60664200       6.27797100       9.10276200       0.10804280       0.12169135      -0.09834517
O        2.51369900       8.16963800       9.02613800      -0.13917665      -0.00003075      -0.14269305
O        1.01786400       5.65182600       5.46221500      -0.07860315       0.23971878       0.16537440
O        0.81494300       9.51615800       5.80241300      -0.26439946       0.19869713      -0.16237099
C       -0.95576000       6.91323100       8.39060000      -0.07337677      -0.18153239       0.09260420
C        1.59039000       8.10020400       8.33272700       0.10914287      -0.04091145       0.18207448
C        0.65783800       6.53318100       6.12112900       0.05907840      -0.28159305      -0.13664586
H        0.56461900      10.30354400       6.35657000       0.06610656      -0.12647561      -0.07212999
H        0.06303100       9.46009100       5.14894200       0.22568338      -0.01998138       0.18452526
12
Properties=species:S:1:pos:R:3:forces:R:3 energy=-38937.11999820178 pbc="F F F"
Ru       0.03005000       8.01679500       7.19077200      -0.05770595      -0.04456478       0.04367261
Cl      -1.84578600       8.14136300       5.65297600      -0.00198345       0.00855524      -0.01062334
Cl      -0.72726300      10.02773700       8.32567300       0.00705809       0.00338918      -0.01219845
O       -1.59079600       6.27311200       9.10788800      -0.00649666      -0.02650664       0.00484128
O        2.50851000       8.16593700       9.02152100       0.02865891      -0.00113329       0.03063773
O        1.01639300       5.65490100       5.46941500      -0.00380508      -0.00782068       0.00226962
O        0.81855700       9.52160800       5.79731400      -0.13239650       0.06276418      -0.06156188
C       -0.95078100       6.90532300       8.38635700       0.01087366       0.04271297       0.00062694
C        1.58049000       8.09615000       8.33800000      -0.00106521      -0.00210414      -0.01971563
C        0.65146700       6.53280900       6.12537800       0.02766219      -0.01588834      -0.02207395
H        0.57056000      10.30487500       6.35359300       0.01743815      -0.03980911      -0.05303590
H        0.06870000       9.45709100       5.14791400       0.11176190       0.02040546       0.09716102
12
Properties=species:S:1:pos:R:3:forces:R:3 energy=-38937.12064365586 pbc="F F F"
Ru       0.02786100       8.01771900       7.19128700      -0.01970941       0.00775604       0.02544184
Cl      -1.84839900       8.14224300       5.65336900       0.00218950       0.00436692      -0.00183129
Cl      -0.72692400      10.03037100       8.32331700      -0.00064339       0.00232176      -0.00274481
O       -1.58361400       6.26242300       9.10503800      -0.03815456      -0.02575443       0.04754428
O        2.50540200       8.16143500       9.02473300       0.05343550       0.00200150       0.03897896
O        1.01366100       5.64984600       5.47634200       0.02624366      -0.05109693      -0.04063325
O        0.81635400       9.52538000       5.79527800      -0.02616355       0.00357322      -0.03079848
C       -0.94984900       6.90619200       8.38876200       0.04784813       0.02215571      -0.06488946
C        1.57961300       8.09512300       8.33824000      -0.04164648       0.00004253      -0.02976073
C        0.65125400       6.53164100       6.12732600      -0.02696362       0.03465436       0.03420745
H        0.57475500      10.31147800       6.34701800      -0.00382390      -0.00545074      -0.00540502
H        0.06998500       9.46385000       5.14608900       0.02738806       0.00543012       0.02989052
12
Properties=species:S:1:pos:R:3:forces:R:3 energy=-38937.12077916856 pbc="F F F"
Ru       0.02797700       8.01731700       7.19141100      -0.00329065      -0.00456551      -0.00367832
Cl      -1.84715500       8.14387400       5.65221000      -0.00126478      -0.00017478       0.00093526
Cl      -0.72681400      10.03046300       8.32251700       0.00005312      -0.00134613      -0.00111653
O       -1.58391800       6.26573600       9.10765500      -0.01971116      -0.02284698       0.01861031
O        2.50562900       8.15885900       9.02661100       0.02374028       0.00407242       0.01281890
O        1.01571500       5.64956200       5.47542700       0.01167703      -0.02884835      -0.02138227
O        0.81516900       9.52643200       5.79436500       0.00024225      -0.00640344      -0.00670647
C       -0.94916500       6.90471200       8.38748100       0.02451449       0.03142608      -0.01899413
C        1.58034200       8.09464200       8.33870000      -0.02532264      -0.00725678      -0.00733567
C        0.65147200       6.53055900       6.12691600      -0.01061166       0.02896117       0.01971779
H        0.57261800      10.31165000       6.34638200      -0.00263322       0.00644776       0.00403843
H        0.06822800       9.46389500       5.14712600       0.00260689       0.00053448       0.00309268
12
Properties=species:S:1:pos:R:3:forces:R:3 energy=-38937.12080529149 pbc="F F F"
Ru       0.02794500       8.01723000       7.19161800      -0.00224617      -0.00052265       0.00321763
Cl      -1.84723500       8.14430600       5.65246400       0.00051581      -0.00039960       0.00031074
Cl      -0.72662000      10.03077200       8.32192500      -0.00031938      -0.00067173       0.00046876
O       -1.58434600       6.26489900       9.10673500      -0.00365832      -0.00243139       0.00385594
O        2.50683200       8.15973800       9.02581600      -0.00163450      -0.00035553       0.00182343
O        1.01586400       5.64912200       5.47533400       0.00088395      -0.00426777      -0.00392386
O        0.81528300       9.52652700       5.79450800       0.00315629      -0.00536661      -0.00219593
C       -0.94937700       6.90541300       8.38766800       0.00451835       0.00243519      -0.00536353
C        1.57999700       8.09419800       8.33972100       0.00129188       0.00037199      -0.00592778
C        0.65131300       6.53027300       6.12693900      -0.00069122       0.00676828       0.00642287
H        0.57210300      10.31162600       6.34656400      -0.00086039       0.00413562       0.00337277
H        0.06834200       9.46359600       5.14750800      -0.00095619       0.00030426      -0.00206100
